/*--------------------------------*- C++ -*----------------------------------*\
| =========                 |                                                 |
| \\      /  F ield         | OpenFOAM: The Open Source CFD Toolbox           |
|  \\    /   O peration     | Version:  5.x                                   |
|   \\  /    A nd           | Web:      www.OpenFOAM.org                      |
|    \\/     M anipulation  |                                                 |
\*---------------------------------------------------------------------------*/
FoamFile
{
    version     2.0;
    format      ascii;
    class       volScalarField;
    location    "1";
    object      k;
}
// * * * * * * * * * * * * * * * * * * * * * * * * * * * * * * * * * * * * * //

dimensions      [0 2 -2 0 0 0 0];

internalField   nonuniform List<scalar> 
10486
(
0.00959106
0.00959583
0.0095999
0.00960888
0.00961837
0.00962531
0.0096377
0.00964097
0.00963747
0.00962826
0.00961656
0.00960542
0.00959631
0.0095867
0.00958101
0.00958103
0.00959249
0.00959844
0.0095998
0.0095996
0.00959855
0.00959605
0.0095953
0.00958711
0.00956763
0.00959968
0.00960779
0.00964381
0.00967716
0.00972528
0.0097513
0.00976002
0.00976027
0.00975302
0.00973431
0.00970252
0.00966099
0.00961945
0.00959256
0.00957929
0.00956969
0.00957131
0.00957797
0.00958229
0.00958263
0.00957625
0.00957498
0.00956664
0.00957162
0.0096138
0.00962306
0.00967844
0.00972292
0.00976197
0.00978916
0.00980285
0.00980871
0.00980857
0.00979985
0.00978103
0.00974846
0.00970241
0.00965179
0.00960605
0.00958219
0.00956788
0.0095599
0.00955553
0.0095565
0.0095465
0.0095566
0.00954107
0.00958708
0.00964523
0.00964845
0.00971562
0.00974566
0.00978467
0.00981076
0.00982532
0.00983253
0.00983497
0.00983174
0.00982061
0.00979574
0.00975723
0.00971034
0.00966767
0.00962709
0.00959425
0.00957596
0.00956226
0.00956056
0.00954692
0.00956124
0.00954224
0.00961769
0.00969468
0.0096859
0.00975815
0.00978856
0.00983202
0.00986624
0.00987435
0.009884
0.0098898
0.00988681
0.00987943
0.00985821
0.00982715
0.00978908
0.00973911
0.00971184
0.00967416
0.00964626
0.00961342
0.0096
0.00956728
0.00958716
0.00955643
0.0096637
0.00976696
0.00975998
0.00986629
0.00990462
0.00997483
0.0099376
0.00995624
0.00996483
0.00997057
0.00996936
0.00996324
0.0099547
0.00990988
0.00987389
0.00984461
0.00981109
0.00974624
0.00975374
0.00972627
0.00971107
0.00964365
0.00967114
0.00959911
0.00976075
0.00989401
0.00987339
0.00999803
0.0100451
0.0100426
0.0101007
0.0101365
0.0101832
0.0102197
0.010244
0.0102941
0.0102592
0.0101607
0.0100859
0.0100174
0.00995771
0.00986303
0.00985714
0.00981277
0.00980962
0.0097512
0.0098005
0.0097067
0.00986939
0.0100201
0.00997763
0.0100956
0.0101384
0.0101736
0.0102653
0.0103057
0.0104191
0.0105414
0.0106747
0.0107201
0.010694
0.0106315
0.0104915
0.0102743
0.0101399
0.0100166
0.00995643
0.00987693
0.00986978
0.00981475
0.00988684
0.00982287
0.00995263
0.0100961
0.0100554
0.0101804
0.0102309
0.0102926
0.0104153
0.0104929
0.0106706
0.0108987
0.0111454
0.0113176
0.0113113
0.0112285
0.011096
0.0107649
0.0104706
0.0102228
0.0100775
0.00998121
0.00995651
0.00989128
0.00999118
0.0099317
0.0100404
0.0101702
0.0101338
0.0102844
0.0103524
0.0104104
0.0105667
0.0106907
0.0109483
0.0113361
0.0117663
0.0126923
0.0131821
0.0125071
0.0118626
0.0115086
0.0109571
0.0105553
0.0102931
0.0101509
0.0101099
0.0100325
0.0101441
0.010092
0.0101149
0.0102728
0.0102436
0.0104159
0.0104913
0.010553
0.010753
0.0109219
0.0112804
0.0117401
0.0213107
0.229003
0.545524
0.159182
0.013817
0.0125176
0.0118394
0.0110811
0.0106654
0.0103773
0.0103232
0.0102121
0.0103175
0.0102367
0.0101485
0.0103449
0.0103489
0.0105642
0.0106787
0.0107652
0.011043
0.0112681
0.0114536
0.0121484
0.0937135
0.165173
0.0408417
0.0657459
0.155595
0.018042
0.0134466
0.0118327
0.0110972
0.0106622
0.0105383
0.010367
0.0104775
0.0104014
0.0101838
0.0104032
0.0104016
0.0106655
0.0108463
0.0110084
0.0114161
0.0118605
0.0122576
0.0132775
0.0223579
0.289547
0.257203
1.1407
1.36338
0.0188684
0.0129056
0.011494
0.0108919
0.0106814
0.0104804
0.0105912
0.0105345
0.0102249
0.0105023
0.0104992
0.010747
0.0109553
0.0112416
0.0117465
0.0126567
0.0155017
0.731879
1.01409
0.259328
0.100569
0.201695
3.35951
1.2343
0.580131
0.0140348
0.011786
0.0110611
0.0108226
0.0106208
0.0107533
0.0106987
0.0102593
0.0105855
0.010618
0.0108853
0.0110653
0.0114069
0.011919
0.0129794
0.0178982
0.860201
1.3371
0.0811631
0.166538
0.236001
3.41935
1.39246
0.463683
0.0145119
0.0121471
0.0113932
0.0111269
0.0108596
0.010969
0.0108778
0.0103005
0.010682
0.010718
0.0110667
0.0112739
0.0115613
0.012034
0.0126495
0.0166753
0.0327559
0.732574
0.824715
0.756505
0.971201
1.17899
2.43698
2.04596
0.233216
0.0185487
0.0122362
0.0115431
0.0111123
0.0111563
0.0110062
0.0103452
0.0107717
0.0108306
0.0112402
0.0115166
0.0117725
0.0123873
0.0136258
0.0641827
0.899934
2.42858
0.724464
0.537585
0.69757
0.941237
1.75576
1.42136
0.833645
0.0438615
0.0126473
0.0117724
0.0112483
0.0112634
0.0110575
0.0103857
0.0108796
0.0109085
0.0113488
0.0116952
0.0120928
0.0128411
0.0154077
0.356263
1.3541
1.74356
2.26521
1.66206
1.51232
1.02761
1.897
1.06933
0.517321
0.0300117
0.0124842
0.0118186
0.0113048
0.01133
0.0111221
0.0104542
0.0110104
0.011045
0.0114589
0.0118072
0.0125151
0.0132431
0.0146954
0.0240811
0.158342
1.18396
3.61103
2.50515
2.54516
2.2216
1.50169
1.36388
0.138503
0.017006
0.0124784
0.0118835
0.0113969
0.0114394
0.0111803
0.010612
0.0111595
0.0112339
0.0117333
0.0120424
0.012744
0.0133296
0.0144736
0.0166358
0.0552983
2.32545
3.47655
2.60495
3.18538
3.54516
2.7707
2.22031
0.230239
0.0286812
0.0142172
0.0123183
0.0116677
0.0116921
0.0112704
0.0107934
0.0113061
0.0113539
0.0119561
0.0123804
0.0132971
0.0135648
0.0142665
0.0169998
0.211728
3.79951
2.50715
2.22267
3.09595
4.24359
4.07443
2.62004
1.12952
0.114413
0.0256119
0.0143066
0.0125247
0.0123246
0.0114727
0.0109955
0.0115301
0.0115991
0.0122197
0.0127784
0.0138494
0.0145951
0.016227
0.0246707
1.07458
2.35946
0.737405
1.18675
2.98322
4.33292
4.90705
2.88309
1.41011
0.166262
0.0320831
0.015775
0.0133033
0.0128813
0.0117227
0.0111933
0.0116185
0.0117737
0.0125403
0.0132461
0.0143737
0.015376
0.0173821
0.0280072
0.671235
1.65957
0.747278
0.473326
3.10631
4.33364
5.38457
3.53473
1.2501
0.153467
0.0305344
0.0158626
0.0135915
0.0131182
0.012104
0.0114293
0.0116073
0.0117743
0.0125884
0.0134991
0.0148042
0.0159182
0.0178717
0.0222839
0.0828523
0.388663
0.215827
1.14697
3.99364
4.22497
5.37468
4.03142
0.766798
0.101284
0.0244785
0.0157546
0.0137369
0.0133679
0.0124742
0.0116331
0.0115494
0.0117185
0.0125307
0.013493
0.0150235
0.0161493
0.0180958
0.0214723
0.0276283
0.0476521
0.353715
4.40814
4.73178
3.32989
4.47113
3.74349
0.365881
0.0580939
0.0206858
0.0157393
0.0140214
0.0138376
0.0128438
0.0117351
0.0113815
0.0115243
0.0123028
0.0133214
0.0150625
0.0164225
0.0184999
0.0222649
0.0322615
0.408663
5.02007
5.47384
3.03491
2.06189
2.9814
2.72076
0.179537
0.0442803
0.0199845
0.0160494
0.0146981
0.0144069
0.013245
0.0115956
0.0112107
0.0112637
0.0119093
0.0128755
0.0150723
0.0169366
0.0199027
0.0265437
0.470331
5.20003
5.48363
2.4285
1.22466
1.35951
2.07289
1.80277
0.140405
0.0433983
0.02034
0.0168315
0.0153863
0.0148675
0.0136991
0.011561
0.0111707
0.011186
0.0118024
0.0127922
0.015141
0.0178966
0.0298578
0.208736
4.69428
5.33733
2.02334
0.774389
0.535772
0.869678
1.47632
1.06516
0.150678
0.0432454
0.0207201
0.0172028
0.015798
0.0152012
0.0142355
0.011748
0.011201
0.0112066
0.011844
0.0128706
0.0154115
0.0196989
0.198776
3.09084
5.27851
2.95731
0.589947
0.412146
0.567308
0.778767
0.978106
0.674758
0.152672
0.0419008
0.0206111
0.0173056
0.0160058
0.0154914
0.0148134
0.0123409
0.0113391
0.0113164
0.01203
0.0131108
0.0168014
0.0352261
1.05153
4.45769
4.46224
1.5402
0.265812
0.269274
0.509998
0.699892
0.727839
0.402369
0.126831
0.035685
0.0199837
0.0174401
0.0163333
0.0158171
0.0152547
0.0136342
0.011749
0.0116307
0.0124987
0.0136314
0.0183183
0.0682167
1.67639
4.6555
3.86454
1.43421
0.306207
0.174341
0.221824
0.317303
0.34967
0.153842
0.0599522
0.0289529
0.0197834
0.0177808
0.0169176
0.0162678
0.0154053
0.0146429
0.0126035
0.0123655
0.0134661
0.0146866
0.0181026
0.0655475
1.68567
4.55843
3.73447
1.88438
1.25949
0.731812
0.247798
0.145958
0.0899001
0.0614566
0.0366927
0.0294669
0.0200461
0.0182014
0.0173488
0.0167472
0.015309
0.0151475
0.0131697
0.012991
0.014569
0.0158021
0.0178034
0.0390562
1.29918
4.34898
3.67527
2.09081
1.80649
1.80095
1.75112
1.37128
0.559706
0.127205
0.0440382
0.0478951
0.0226854
0.0190336
0.0176645
0.01705
0.0145496
0.01603
0.0135993
0.013331
0.0153155
0.0169775
0.0185337
0.0361535
0.453097
3.69934
3.93667
2.28121
1.80548
1.80601
1.94009
2.0515
1.96734
1.28888
0.636299
0.187621
0.0457945
0.0224824
0.0183439
0.0173144
0.0138051
0.0173295
0.0144248
0.0136465
0.0160078
0.018331
0.0204905
0.0269244
0.233123
1.83989
3.34467
2.67481
2.11377
2.02326
2.03921
1.93061
1.82378
1.82569
1.46775
0.832653
0.185728
0.0456283
0.0215259
0.017929
0.0137831
0.0181886
0.0156669
0.0143109
0.0166052
0.0190689
0.0217849
0.0253864
0.0783581
0.62291
1.81953
2.36196
2.06396
1.9395
1.94033
1.83367
1.52
1.43139
1.52018
1.3686
0.738265
0.156791
0.0396316
0.0204155
0.0140992
0.0185556
0.0167293
0.0156447
0.0174973
0.0204982
0.0233566
0.0258493
0.0393178
0.198888
0.658546
1.2439
1.47489
1.45944
1.41443
1.35605
1.15787
0.908591
1.14949
1.39934
1.23472
0.578085
0.117028
0.0321858
0.0154822
0.0185692
0.0171552
0.0167682
0.0187901
0.0222971
0.0248424
0.0274525
0.0320432
0.0705195
0.210834
0.455177
0.627662
0.752088
0.789816
0.790129
0.767485
0.665464
0.726602
1.20988
1.39629
1.08866
0.339131
0.0772383
0.0211557
0.0186032
0.0171998
0.0174001
0.0195195
0.0231858
0.0256773
0.0287395
0.0321339
0.0467627
0.0965832
0.216801
0.356624
0.543056
0.626117
0.630409
0.62519
0.572261
0.582779
0.822728
1.39384
1.35909
0.849504
0.242798
0.0480449
0.0184267
0.0167569
0.0174947
0.0210682
0.0255158
0.0310694
0.0430727
0.0671352
0.113435
0.197048
0.327815
0.480622
0.660915
0.731745
0.729138
0.708443
0.637085
0.627138
0.773963
1.35945
1.53109
1.19574
0.435032
0.0893314
0.0107047
0.0112046
0.0110647
0.0107165
0.0112686
0.0112279
0.010699
0.011202
0.011273
0.0106013
0.0111149
0.0111634
0.0111209
0.0115747
0.0112761
0.0112926
0.0122358
0.0116416
0.0113155
0.0127072
0.0122925
0.0112595
0.012296
0.0126973
0.0111967
0.0117992
0.0122189
0.0108469
0.0114635
0.0117734
0.0112775
0.0116163
0.0112361
0.0117067
0.0146681
0.0117094
0.0125261
0.03526
0.0164377
0.0131947
0.903792
0.0731319
0.01161
0.0125011
0.0135568
0.0110444
0.0118504
0.0123871
0.0112273
0.0114373
0.011148
0.011664
0.0120136
0.0114523
0.017015
0.0794484
0.0121277
0.160003
1.0352
0.126921
0.74605
0.04714
0.395106
0.0119587
0.0133996
0.0156187
0.0112839
0.0119098
0.013272
0.0114605
0.0120408
0.0116767
0.0119995
0.0123466
0.0120519
0.355401
0.117295
0.0177233
0.777316
1.32539
0.235159
0.0231428
1.68706
0.942492
0.0137148
0.0177967
1.21891
0.012218
0.0131211
0.0168306
0.0122187
0.0145647
0.0124663
0.0129529
0.206833
0.0149711
0.286039
0.308996
0.899659
1.14707
3.22868
0.214348
1.80822
2.27427
2.80029
0.0211837
0.794082
1.24465
0.0135454
0.014937
0.421043
0.0150796
0.0169326
0.0129783
0.419777
0.741447
0.0179309
0.421162
0.102403
1.62664
0.100797
0.16303
0.116105
1.02837
0.913576
1.56795
0.0158219
0.0164774
0.575585
0.381127
0.0280796
0.0166742
1.79122
0.682715
0.0313696
0.178773
0.783223
0.639129
0.218764
0.94301
0.768007
1.60124
2.3636
1.28157
0.706138
2.12606
2.38569
0.707924
2.39747
0.791722
0.821039
0.690201
2.21003
0.77267
0.489876
0.597584
0.928351
0.637777
0.501134
0.961168
0.876535
0.640134
2.44454
1.72983
0.982242
0.877574
2.51991
1.75192
0.517655
1.39334
1.79313
0.697047
1.34877
1.42127
0.838249
0.972757
1.274
0.0106131
0.0110308
0.0108484
0.0103622
0.0107706
0.0109975
0.0108646
0.0112155
0.0109209
0.0111681
0.011359
0.0113393
0.0113267
0.0116299
0.0115544
0.0113191
0.0116696
0.0116647
0.0112573
0.0114371
0.0115544
0.0109668
0.0112659
0.0114035
0.0104969
0.0109559
0.0114075
0.0109119
0.0111923
0.0108548
0.0114103
0.0116942
0.0114404
0.0125908
0.0838423
0.794189
0.0118867
0.0136304
0.0413724
0.0113849
0.0116795
0.0118382
0.0106519
0.0110567
0.011746
0.0114284
0.0114973
0.011396
0.041432
0.212104
0.0641112
0.930986
0.463749
1.66201
0.396614
0.0544392
0.0467464
0.0139759
0.645582
0.0872329
0.012647
0.0174008
0.682301
0.0124171
0.0127836
0.0135944
0.0115323
0.0114427
0.0115726
0.0407338
0.016498
0.0126086
1.00331
0.0365517
0.0181966
0.261957
0.46379
1.67187
0.0126732
0.0134157
0.0145226
0.0123424
0.0136936
0.0130071
0.0196569
0.896729
0.503957
1.72385
1.97015
1.6711
0.0150977
0.0172028
0.0580908
0.0207036
0.0407472
0.0174402
0.97649
1.70943
1.09537
0.820093
0.938054
1.26755
0.159946
0.196368
0.153092
3.79813
3.24738
0.203485
2.24214
1.79008
3.39417
0.034124
0.0423718
0.786746
0.0169177
0.0156695
0.0128139
0.0309847
0.0213784
0.0175095
0.0730127
0.619013
0.734703
0.457919
0.218165
0.909535
0.171573
0.211461
0.220583
3.34202
1.01256
1.01589
1.26521
1.19846
1.44879
0.0166348
0.136685
1.92851
0.0284861
0.756398
0.0257869
0.119325
0.375945
0.0835188
0.665718
1.42324
1.34818
2.13329
1.38522
0.975713
2.18269
1.54459
1.78405
2.59967
1.78768
1.57652
0.514416
0.82085
1.13279
0.61915
1.00799
0.947728
0.684775
0.838598
0.938697
1.70471
1.52006
0.891058
0.0111331
0.0109248
0.0109668
0.0112668
0.0110083
0.011011
0.0109833
0.0110083
0.0112598
0.0112545
0.0109996
0.0109714
0.0110116
0.0110064
0.0112745
0.010916
0.0108665
0.0111677
0.0113249
0.0111705
0.0110075
0.0113682
0.0112293
0.0113687
0.0111029
0.0112022
0.0113701
0.0115371
0.011401
0.011202
0.0113734
0.0114528
0.0118798
0.0116612
0.0116445
0.011331
0.0115613
0.0116551
0.0113039
0.0114163
0.0114368
0.0111753
0.0119016
0.0115038
0.0114594
0.0115433
0.0112482
0.0111739
0.0114479
0.0113617
0.0115963
0.0114165
0.0112545
0.0111102
0.0114197
0.0112913
0.0114364
0.0111067
0.0112322
0.011375
0.987016
0.0195467
0.0212076
0.0161647
0.0188166
0.995073
0.0118345
0.012003
0.0116641
0.0121666
0.0117415
0.011443
0.0118792
0.0118193
0.0121297
0.0113134
0.011196
0.0113707
0.0118287
0.0115732
0.0114357
0.0114341
0.0115215
0.0115914
0.01429
0.0151047
0.655966
2.17633
1.62807
0.0716132
4.29943
2.72008
1.36501
0.0718415
1.09789
4.2182
0.0889419
0.273334
0.986812
0.0125578
0.0127669
0.012242
0.0138673
0.0129308
0.0127008
0.0125496
0.0120764
0.0125525
0.0115369
0.0115362
0.0113425
0.0119223
0.0115891
0.0116018
0.0116468
0.0114519
0.0120257
1.41098
0.692498
0.597288
0.22352
0.666523
1.64902
0.238125
2.52789
0.127106
1.77503
0.351269
1.43438
0.0145635
0.0163396
0.0140849
0.0880388
0.0195751
0.0149588
0.0148255
0.0135996
0.0147778
0.0129293
0.0125319
0.0120228
0.0132654
0.0126944
0.0132412
0.0134577
0.014326
0.0182686
0.319074
0.256555
0.608119
1.43701
0.128073
0.15723
0.263425
0.139923
1.51555
1.71752
1.80546
1.16483
0.0946508
0.925018
0.181511
1.4231
1.09191
0.159399
0.105991
0.0186885
0.0288225
0.0162665
0.0138342
0.0134868
0.0683505
0.104092
0.898598
0.0176089
0.0452296
0.0419838
1.16539
0.725621
0.83427
0.0870669
0.746618
1.0622
0.925725
0.143915
0.120235
1.10288
0.199612
1.02285
1.30949
1.64555
1.51305
1.43889
1.65139
1.28422
1.66815
1.62933
1.42664
0.0382374
0.0246304
0.0429035
0.021671
0.0228718
0.0336406
0.0348441
0.0615812
0.0701734
0.232659
0.456444
0.39578
0.763966
0.566374
0.259162
2.4825
2.2642
1.68661
0.501502
1.00663
1.23007
1.69992
1.58853
2.47535
1.1308
0.568671
0.203735
2.09516
0.774724
1.37902
1.22074
1.27548
0.668555
1.5024
1.48091
1.49018
0.483498
0.455765
0.471175
0.550445
0.457678
0.485078
0.575345
0.538402
0.575716
0.483681
0.526265
0.56005
0.891887
0.703933
0.836039
0.678639
0.69358
0.878841
0.588766
0.658518
0.660083
2.10839
1.5771
2.34363
0.979176
1.31899
1.28178
1.40125
2.33017
1.57244
0.911768
0.816283
0.505826
0.966142
1.00887
0.641503
0.0113072
0.01136
0.0113653
0.0113116
0.0114074
0.0114114
0.0112649
0.0113347
0.0113209
0.011376
0.0113947
0.0113942
0.0117357
0.012122
0.0124003
0.787349
1.29093
0.855868
0.0116369
0.0119607
0.012338
0.0114455
0.0114837
0.0114575
0.0403372
0.184233
0.073734
0.0442691
0.526995
0.0132325
0.0135493
0.0139205
0.0122407
0.0124805
0.0124712
0.102467
0.234519
1.31622
1.90354
1.07425
0.0168874
0.0186077
0.0233231
0.0163147
0.0176377
0.0165774
1.10068
1.24947
1.38112
0.139966
0.149515
1.10154
1.13978
1.5397
3.35668
1.44642
1.62554
1.55238
1.41035
0.230526
0.054451
0.882091
0.658155
0.607949
1.79566
2.47841
2.5205
0.618227
0.719284
0.862603
0.564762
0.678055
0.639772
0.0109131
0.0109422
0.0111189
0.0112673
0.0111827
0.011196
0.0111579
0.0111612
0.0112616
0.0112372
0.0111189
0.0111417
0.0112021
0.0111973
0.011267
0.0110971
0.0109204
0.0109024
0.0113475
0.0113236
0.0112813
0.0119848
0.011499
0.011624
0.0114192
0.011426
0.0113252
0.011314
0.0113183
0.0112897
0.0116901
0.0115241
0.0119582
0.012237
0.0117782
0.0114776
0.0114955
0.0117979
0.0122006
0.0243119
0.014554
0.0157936
0.0171919
0.0165459
0.0130708
1.01177
0.442577
0.774567
0.0116431
0.0116834
0.0115853
0.0127691
0.0122457
0.0119088
0.0113424
0.0111685
0.0111025
0.0116531
0.0116053
0.0119046
0.0114488
0.011457
0.0114578
0.39218
0.0144681
0.0128781
0.855262
0.759566
0.0736573
0.709778
1.3773
1.50381
0.994605
0.166118
0.0789041
0.0137073
0.0135458
0.0131715
0.0139388
0.0130789
0.0141033
0.0114661
0.0114692
0.0114368
0.0120061
0.0118168
0.0118495
0.011883
0.0118303
0.0120237
0.200222
1.01325
0.632752
0.766219
1.22386
2.11264
0.442709
0.953228
1.25557
0.0142281
0.0141294
0.0139308
0.0220529
0.0179646
0.0162276
0.0158546
0.0154564
0.0160641
0.0124208
0.012348
0.0121436
0.0139964
0.0136369
0.0139828
0.0143578
0.0146174
0.0154046
0.818522
0.29184
0.561995
0.266928
0.20939
2.07227
1.971
1.33765
1.46091
0.0286859
0.0517142
0.0312165
1.06061
0.784384
0.582503
0.294838
0.107135
0.155294
0.0143607
0.0143469
0.0165159
0.854312
0.0990291
0.0300558
0.0680024
0.251517
0.20957
1.28241
0.947127
0.136282
0.25206
1.20165
0.112122
1.27306
1.39432
1.24536
0.774304
0.109382
0.0952083
0.13516
0.0628529
0.205632
0.0308105
0.032857
0.0384015
0.221173
0.164367
0.273677
0.83225
0.643268
0.734144
1.49428
2.07927
1.95462
2.35774
2.20596
2.16807
2.16411
2.65083
2.45348
0.865123
1.30163
0.677536
0.80569
0.731113
0.600188
0.484865
0.470542
0.474718
0.543815
0.496315
0.548901
0.626591
0.590094
0.599255
0.482546
0.494816
0.51908
0.606211
0.614976
0.642168
0.602011
0.572494
0.506847
0.782297
0.782501
0.680832
0.768753
0.767331
0.688747
0.0112703
0.0112374
0.0111637
0.011366
0.0113262
0.0113118
0.011296
0.0113174
0.0113481
0.0114054
0.0113775
0.0113201
0.0113962
0.011405
0.0113171
0.011352
0.0113571
0.0113071
0.0115027
0.0113768
0.0113482
0.0114163
0.0113895
0.0115309
0.0112932
0.0112667
0.0113643
0.0114896
0.0114385
0.0113842
0.0114075
0.0114444
0.0115118
0.0209321
0.017927
1.31971
0.0116996
0.011715
0.0117886
0.011446
0.0114177
0.011383
0.0114656
0.0114512
0.0114696
0.0113624
0.0114152
0.0114512
0.0739454
0.522423
0.56612
0.0744514
0.458291
0.0862646
0.995285
1.24171
0.946142
1.55601
1.52922
0.848555
0.582307
0.394024
0.0436376
0.0292514
0.0165248
0.104808
0.012526
0.0125311
0.0123746
0.0114795
0.0115526
0.0115658
2.19334
0.0293017
0.0331111
0.151998
0.0992607
2.8538
0.922212
0.0675392
0.139436
0.0142262
0.0139563
0.0142853
0.0127045
0.0127896
0.0132558
1.11582
1.95925
1.89888
0.033339
0.022373
0.0307545
0.025035
0.019607
0.0179918
0.0269976
0.0223491
0.0346127
0.0171432
0.0196529
0.0214106
0.859815
0.523654
0.718273
1.52152
1.33303
0.928754
1.4145
1.23527
1.51558
1.43963
1.38043
1.48795
5.24507
0.395503
0.300176
0.0254175
0.0211654
0.0228806
0.935927
1.05919
0.0843324
0.0435808
0.0414679
0.148031
0.889423
0.0426595
0.0654352
1.16201
1.26284
1.30457
1.37248
1.25354
1.12231
1.34502
1.326
1.48692
0.170226
0.0821879
0.0772244
1.08518
1.11686
1.48272
1.75142
1.53108
1.91553
1.20802
1.30366
1.5533
1.02836
1.15978
1.06768
0.574371
0.620776
0.539019
0.737625
0.711494
0.593553
0.0111752
0.0111803
0.0112691
0.0112742
0.0111766
0.0111819
0.0111788
0.0111618
0.0112482
0.0112594
0.0111804
0.0111721
0.0112862
0.011212
0.011253
0.0113353
0.0113689
0.011448
0.0113233
0.0113496
0.0113256
0.0113996
0.0114004
0.0113697
0.0113629
0.0112998
0.0113313
0.0114847
0.0113923
0.0114199
0.0113254
0.0113333
0.0114387
0.011262
0.0112866
0.0112869
0.0113918
0.01148
0.0114429
0.0113301
0.0114302
0.0114296
0.011282
0.0113293
0.0113845
0.0114183
0.0113476
0.0114067
0.0113106
0.0113647
0.0114455
0.011194
0.0112579
0.0112564
0.0115073
0.0115514
0.0114808
0.0114723
0.0114777
0.0115181
0.0114643
0.0115033
0.0114881
0.0114904
0.011529
0.0114464
0.0116309
0.0115392
0.0115425
0.0113814
0.0113517
0.0113981
0.0113853
0.011419
0.0114488
0.0113613
0.0114038
0.0113638
0.0114805
0.0114212
0.0114201
0.0113172
0.0112877
0.0113334
0.0437467
0.119825
1.04606
0.425247
0.0998997
0.0210662
0.465073
0.0245214
0.0320329
0.0118508
0.0117751
0.0117648
0.0116025
0.0117171
0.0117796
0.0119946
0.0119076
0.0121131
0.0118608
0.0119434
0.0119567
0.0119576
0.0119788
0.0118782
0.0122262
0.012091
0.012066
0.0114778
0.0115525
0.0114775
0.0114638
0.0114679
0.0114495
0.011568
0.0114979
0.0114643
0.0115069
0.0115086
0.011588
0.492681
0.033529
0.0361125
3.52132
0.696279
0.735914
0.567801
0.657288
2.9928
3.71991
4.05547
3.00087
0.104373
0.134961
1.29655
2.47672
0.172989
0.100591
1.8931
1.27636
2.48368
1.16192
0.479398
0.909004
0.0126454
0.0124396
0.0122924
0.0126867
0.0124689
0.0126458
0.0122437
0.0123778
0.0125745
0.0135655
0.0134122
0.013699
0.0129549
0.0131995
0.0132036
0.0129264
0.0130352
0.0127318
0.0115578
0.0114976
0.0114834
0.0117121
0.0117201
0.0116076
0.011584
0.0116939
0.0117493
1.38415
1.19643
0.454764
2.20052
1.3833
1.41888
0.209335
0.749042
0.394457
0.0146206
0.0142843
0.0144066
0.0153766
0.0160511
0.0151224
0.0146377
0.0150552
0.0152655
0.0127729
0.0125091
0.0125952
0.0136142
0.0133347
0.0130311
0.0138454
0.0143067
0.0139159
0.199651
0.252126
0.802213
1.87643
0.196317
0.195676
1.75699
1.35603
1.86961
0.193143
0.0996866
0.0461255
0.303252
0.550319
0.420719
0.0471468
0.0704067
0.200018
0.081221
0.203553
0.105704
0.0217439
0.0215103
0.0178178
0.0501783
0.0315364
0.0308624
0.0268053
0.0335927
0.0532351
1.57141
1.49236
1.22404
0.995343
0.330246
0.351817
0.258685
0.332496
0.977036
0.296657
0.174863
0.347611
0.642007
1.05043
0.565684
0.166257
1.07359
0.361795
1.57828
1.52481
1.31793
1.62466
1.59222
1.6291
1.43963
1.53133
1.58211
1.58633
1.58557
1.46386
1.63947
1.62447
1.63858
1.23027
1.53982
1.56891
1.41438
1.55338
1.56687
0.0329597
0.0458307
0.0585584
0.028661
0.0357028
0.029199
0.0669474
0.0511217
0.0365933
0.0299055
0.0274234
0.0304652
0.0445729
0.0330762
0.0314939
0.0468589
0.0383962
0.0499856
0.330931
0.151083
0.226258
0.0595382
0.158555
0.0761889
0.376244
0.184105
0.0573817
0.37742
0.372473
0.355112
2.50543
2.33586
2.40813
1.96782
2.0014
1.7594
1.13451
0.861975
1.00736
1.71921
1.97484
1.95073
0.930266
0.824098
0.972468
0.361977
0.610345
0.738518
0.341059
0.44649
0.298357
1.80369
1.71118
1.23615
1.14467
0.935474
1.01341
1.02462
0.903817
1.18409
0.590139
0.734331
0.846626
1.59968
1.74104
1.81989
1.43084
1.60522
1.59029
1.73509
1.63935
1.42568
0.467512
0.468607
0.483817
0.498853
0.480891
0.468301
0.547694
0.571373
0.591268
0.540408
0.510607
0.528298
0.832633
0.840401
0.950902
0.677456
0.72487
0.714735
0.740326
0.726775
0.679628
0.891673
0.795224
0.798213
0.604082
0.609411
0.593349
0.645003
0.624993
0.62576
0.64903
0.632255
0.647176
2.37857
2.29724
2.03239
1.06744
1.08331
0.994733
0.504023
0.557102
0.558012
0.662313
0.773378
0.75836
0.0129906
0.0153676
0.0170335
0.0258952
0.136453
0.0378125
0.961396
0.0726741
0.0754122
0.0508076
0.2596
0.476213
0.358919
0.0654807
0.122368
0.175553
0.197981
0.26736
0.165256
0.0992853
1.14519
1.1474
1.20021
0.0855976
0.0481032
0.0921339
0.158317
0.166603
0.190823
0.0128117
0.0141736
0.0224139
0.0231983
0.022958
0.223304
0.0297205
0.045592
0.296955
0.279364
0.434402
1.1727
0.0297198
0.041296
2.14784
0.193615
0.914195
0.743235
1.27314
1.52416
1.54598
1.11296
2.18852
0.632343
0.72939
0.95868
1.10942
0.545993
0.237878
0.152954
0.494654
0.47978
0.737184
1.01462
0.835484
1.01572
0.918305
0.641896
2.72547
0.267179
0.198098
0.287399
0.225783
0.158224
0.146569
0.257841
0.327841
0.768749
0.852839
0.363529
0.833406
0.536677
0.241254
0.0307654
0.0807428
0.399487
0.394859
0.576685
0.579999
0.0958692
1.18623
1.12448
0.952628
0.830676
1.41014
0.929128
0.579849
0.370196
0.193069
0.0625013
0.0154127
0.0141207
0.140183
0.0759389
0.0789361
0.016046
0.0133621
0.0138818
0.667165
1.27332
0.699794
1.66657
1.76198
1.91297
0.70567
0.559311
0.376178
1.48815
1.73144
1.77288
1.06058
1.01177
0.897923
0.126308
0.192687
0.174666
5.56056
0.387379
0.312
0.0990819
0.0632334
0.413073
0.195714
0.176459
0.20134
0.797173
0.990724
0.958052
0.663275
0.313671
0.303271
1.18397
2.20673
2.40405
0.104459
0.668299
0.533523
3.00706
4.20999
3.98047
1.13719
3.33538
3.82498
0.102076
0.0939183
0.0630508
1.08285
1.22623
1.14437
0.690427
0.91017
1.22999
0.633871
0.844361
0.643041
0.0620535
0.193726
1.5328
1.94415
0.245844
2.00496
0.489045
0.787563
0.227667
0.559359
0.559248
1.19941
0.216443
0.181894
0.260203
1.62639
0.559667
0.556129
1.7719
1.72012
1.75807
1.23913
1.35473
1.02478
0.703272
1.3363
0.64059
0.689614
1.20077
1.52415
0.754107
0.582173
0.94318
0.096731
0.0688646
0.330918
0.382729
0.372488
0.302991
0.953473
0.935342
0.570805
1.29789
0.910944
0.88713
0.910065
0.920407
0.84718
0.0661592
0.0866598
0.0973281
0.190384
0.0977727
0.0562368
1.12926
1.15152
1.28141
1.29657
1.11847
1.09221
1.11058
1.02444
1.34507
0.91262
0.920042
1.10002
0.75423
0.753796
1.01507
1.73723
1.38412
0.758132
0.0351341
0.0191827
0.043877
0.834491
0.799219
0.877556
1.90161
1.20332
0.37146
1.98969
2.58316
1.9292
2.04388
0.975783
0.247487
0.825988
0.929215
1.40114
1.86584
1.84521
2.07768
0.632824
0.787
0.582006
0.569687
0.680559
0.91156
0.247677
0.332975
0.368832
0.304073
0.317664
0.222082
2.35439
0.643161
0.598548
0.72799
1.19987
1.40392
0.279486
0.162023
0.182294
1.29085
0.177316
1.08026
0.108754
0.120312
0.132039
0.286814
0.264761
0.203339
0.161568
0.308532
0.120421
0.224373
0.263757
0.318661
0.0212854
0.0888689
0.286916
0.413419
0.401381
0.0671711
0.548667
0.518875
0.523161
0.488318
0.50796
0.561643
0.150379
0.459657
0.254333
0.531929
0.524649
0.319813
0.0907253
0.496877
0.453602
1.09101
1.20306
1.22073
1.19785
1.23884
1.24929
0.974543
0.912462
0.940132
1.54928
2.03717
1.99275
0.692987
0.0571293
0.0284096
0.0305725
0.973694
0.230165
1.24466
1.49122
0.0323736
0.102706
0.0972281
0.087717
0.108947
0.674141
0.437832
0.150187
1.11495
0.123511
1.47503
1.64508
1.32305
1.38954
1.42313
1.45353
1.31594
1.11662
1.28927
1.33965
0.97803
1.45621
0.0817213
0.139974
0.0409452
0.0542277
0.0868322
0.0513586
0.398767
0.177566
0.0829493
0.0626697
0.0512093
0.0511467
0.926451
1.04574
0.978903
0.236097
0.0303572
0.0336804
0.216809
0.29643
0.602755
2.56112
2.84463
3.60362
0.711146
0.519999
0.531185
2.0416
2.11327
0.724335
0.592413
0.477264
0.461004
0.512929
0.490169
0.625009
2.37033
2.14201
1.90895
3.03448
3.20473
3.29757
0.107544
0.127531
0.15389
0.06722
0.100388
0.0853344
0.476161
1.48285
1.86438
0.225728
0.571481
0.278982
1.18577
1.4542
1.59765
2.51946
1.55655
1.50827
1.12023
1.21487
1.04719
1.59985
1.6178
1.25994
1.04567
0.445899
0.218724
2.21399
2.26469
2.17347
0.320218
0.25895
0.188776
2.18878
0.349929
0.485027
0.833002
0.574159
0.525146
0.585805
0.565885
1.72239
1.79144
1.69046
1.68465
1.57741
1.50735
1.48967
1.20003
1.39969
1.45158
0.406436
0.492265
0.484236
0.230672
0.34138
0.476236
0.352695
0.258905
0.297643
0.857328
0.594186
0.33232
0.342521
0.3221
0.266067
0.748813
1.00194
0.94243
1.27804
1.31178
0.937913
0.0834462
0.332267
0.2882
0.106539
0.0869192
0.118131
0.227769
0.295189
0.29271
0.0993161
0.0849817
0.0587573
0.0758249
0.0819615
0.0944638
0.197238
0.208228
0.376962
0.331439
0.332336
0.372143
0.310902
0.34875
0.180067
1.57599
1.96694
4.61447
0.416485
0.479796
0.100507
1.35752
1.15121
0.959442
4.35697
0.832228
0.893978
1.1743
1.14631
1.28714
0.174607
0.156802
0.419273
0.283012
0.382569
0.348335
0.852122
1.98266
2.14368
0.0953191
0.493947
0.492895
0.495399
0.473122
0.331453
0.353555
0.175948
0.386521
1.07104
1.10216
0.998288
0.00993987
0.0100352
0.0100443
0.00990147
0.0099986
0.0100274
0.00986624
0.00994551
0.00995646
0.0098155
0.00988325
0.00990234
0.0101748
0.0102827
0.0102627
0.0102006
0.0103633
0.010322
0.0102288
0.0104602
0.0103985
0.0102935
0.0105782
0.0105286
0.0102951
0.0105923
0.0105923
0.0102238
0.0105749
0.0105822
0.0101464
0.0104462
0.0104819
0.0100564
0.0102286
0.0102767
0.00996788
0.0101014
0.0101594
0.00990063
0.0100042
0.0100239
0.0102891
0.0103992
0.0103376
0.0103871
0.0105982
0.0104617
0.0104877
0.0108218
0.0106347
0.0107016
0.0107996
0.0107784
0.0107251
0.0109064
0.0108926
0.0107029
0.0108993
0.0108882
0.0106276
0.0107824
0.0108046
0.0104062
0.0105518
0.010614
0.0102153
0.0104564
0.0106893
0.0100502
0.0102349
0.0104091
0.00999438
0.0100435
0.0101116
0.0104662
0.0105743
0.0104775
0.0106435
0.0108894
0.0106574
0.0107531
0.0108779
0.0107732
0.0109813
0.0111409
0.0110395
0.0111493
0.0112067
0.0111918
0.0110803
0.0111579
0.0111913
0.0106664
0.0108909
0.0110259
0.0102802
0.0105595
0.0108942
0.0101442
0.0102325
0.0103925
0.0106366
0.010758
0.0106416
0.0110755
0.0111973
0.0110699
0.0120686
0.0132501
0.0124768
0.0130143
0.0159391
0.0148474
0.0131429
0.0137991
0.0138941
0.0121826
0.0129157
0.0136529
0.0118415
0.0119342
0.0119722
0.0114578
0.0115868
0.011664
0.0108859
0.0110782
0.0112617
0.0104259
0.0105771
0.0108296
0.010836
0.0110637
0.0108785
0.0110157
0.0110817
0.0109782
0.0113353
0.0113727
0.0113225
0.0124377
0.0131819
0.0120193
0.351462
0.866903
0.712712
0.3446
0.181087
0.201834
0.0220814
0.384695
0.748044
0.0134808
0.0148719
0.0186245
0.0124655
0.012594
0.0127069
0.0117137
0.0119018
0.0120259
0.0108667
0.0110922
0.0116351
0.0111382
0.0115303
0.0112152
0.0113328
0.011448
0.011369
0.0131172
0.0127871
0.0120712
0.322521
0.110868
0.0417518
0.0495893
0.0351356
0.0294814
0.0462498
0.0795795
0.0459472
0.122267
0.0955397
0.0602562
0.0143912
0.0196384
0.104405
0.011394
0.0116288
0.012598
0.0111749
0.0113434
0.011122
0.0116603
0.0121501
0.0115992
0.0119969
0.0122541
0.0120479