/*--------------------------------*- C++ -*----------------------------------*\
| =========                 |                                                 |
| \\      /  F ield         | OpenFOAM: The Open Source CFD Toolbox           |
|  \\    /   O peration     | Version:  5.x                                   |
|   \\  /    A nd           | Web:      www.OpenFOAM.org                      |
|    \\/     M anipulation  |                                                 |
\*---------------------------------------------------------------------------*/
FoamFile
{
    version     2.0;
    format      ascii;
    class       surfaceScalarField;
    location    "1";
    object      meshPhi;
}
// * * * * * * * * * * * * * * * * * * * * * * * * * * * * * * * * * * * * * //

dimensions      [0 3 -1 0 0 0 0];

internalField   nonuniform List<scalar> 
20773
(
0
0
0
0
0
0
0
0
0
0
0
0
0
0
0
0
0
0
0
0
0
0
0
0
0
0
0
0
0
0
0
0
0
0
0
0
0
0
0
0
0
0
0
0
0
0
0
0
0
0
0
0
0
0
0
0
0
0
0
0
0
0
0
0
0
0
0
0
0
0
0
0
0
0
0
0
0
0
0
0
0
0
0
0
0
0
0
0
0
0
0
0
0
0
0
0
0
0
0
0
0
0
0
0
0
0
0
0
0
0
0
0
0
0
0
0
0
0
0
0
0
0
0
0
0
0
0
0
0
0
0
0
0
0
0
0
0
0
0
0
0
0
0
0
0
0
0
0
0
0
0
0
0
0
0
0
0
0
0
0
0
0
0
0
0
0
0
0
0
0
0
0
0
0
0
0
0
0
0
0
0
0
0
0
0
0
0
0
0
0
0
0
0
0
0
0
0
0
0
0
0
0
0
0
0
0
0
0
0
0
0
0
0
0
0
0
0
0
0
0
0
0
0
0
0
0
0
0
0
0
0
0
0
0
0
0
0
0
0
0
0
0
0
0
0
0
0
0
0
0
0
0
0
0
0
0
0
0
0
0
0
0
0
0
0
0
0
0
0
0
0
0
0
0
0
0
0
0
0
0
0
0
0
0
0
0
0
0
0
0
0
0
0
0
0
0
0
0
0
0
0
0
0
0
0
0
0
0
0
0
0
0
0
0
0
0
0
0
0
0
0
0
0
0
0
0
0
0
0
0
0
0
0
0
0
0
0
0
0
0
0
0
0
0
0
0
0
0
0
0
0
0
0
0
0
0
0
0
0
0
0
0
0
0
0
0
0
0
0
0
0
0
0
0
0
0
0
0
0
0
0
0
0
0
0
0
0
0
0
0
0
0
0
0
0
0
0
0
0
0
0
0
0
0
0
0
0
0
0
0
0
0
0
0
0
0
0
0
0
0
0
0
0
0
0
0
0
0
0
0
0
0
0
0
0
0
0
0
0
0
0
0
0
0
0
0
0
0
0
0
0
0
0
0
0
0
0
0
0
0
0
0
0
0
0
0
0
0
0
0
0
0
0
0
0
0
0
0
0
0
0
0
0
0
0
0
0
0
0
0
0
0
0
0
0
0
0
0
0
0
0
0
0
0
0.00423974
-0.00422591
-1.14421e-05
0
0
0
0
0
0
0
0
0
0
0
0
0
0
0
0
0
0
0
0
0
0
0
0
0
0
0
0
0
0
0
0
0
0
0
0
0
0
0
0
0
0
0
0
0
0
0
0
0
0
0
0
0
0
0
0
0
0
0
0
0
0
0
0
0
-0.00404924
0.00622323
-0.00620253
0.00402854
-0.00205045
0.00627102
-0.00628321
0.00206264
0.000216614
0.00613123
-0.00610729
-0.000240562
0.00227959
0.00605564
-0.00605706
-0.00227817
0.00417908
0.0061354
-0.00616508
-0.0041494
0
0
0
0
0
0
0
0
0
0
0
0
0
0
0
0
0
0
0
0
0
0
0
0
0
0
0
0
0
0
0
0
0
0
0
0
0
0
0
0
0
0
0
0
0
0
0
0
0
0
0
0
0
0
0
-0.0062456
0.00405202
-0.00403659
0.00623017
-0.00399409
0.00398336
-0.00391847
0.00200864
0.00192055
-0.000937712
0.00161541
-0.0015526
0.000874907
0.0017884
0.000125187
-0.00193835
2.47577e-05
0.00212744
0.00389293
-0.00391171
-0.00210866
0.00419047
0.00408806
-0.00411644
-0.00416209
0.0064393
0.00407345
-0.00412114
-0.00639161
0
0
0
0
0
0
0
0
0
0
0
0
0
0
0
0
0
0
0
0
0
0
0
0
0
0
0
0
0
0
0
0
0
0
0
0
0
0
0
0
0
0
0
0
0
0
0
0
0
-0.00616962
0.00194153
-0.00190811
0.00613619
-0.00191476
0.00176007
-0.00178649
0.00375891
-0.00181773
-0.00184675
0.00190281
-0.00190705
0.00185098
0.000101967
0.00187604
-0.00186933
-0.000108681
0.00210973
0.00182683
-0.001817
-0.00211956
-0.00111999
-0.00177101
0.00289101
0.00660346
0.00204827
-0.00206125
-0.00659048
0
0
0
0
0
0
0
0
0
0
0
0
0
0
0
0
0
0
0
0
0
0
0
0
0
0
0
0
0
0
0
0
0
0
0
0
0
0
0
0
0
0
0
0
0
0
-0.00423665
1.00473e-05
0.00422411
-0.000125036
-0.00601691
0.00012291
0.00601903
-0.00384458
-0.00012561
0.000128341
0.00384185
-0.000130571
-0.00184749
0.000129189
0.00184887
0.00214636
-0.000127226
0.000129582
-0.00214872
0.000884772
-5.56692e-05
-0.000895652
6.65489e-05
0.00652518
-0.000150779
0.000148675
-0.00652308
0
0
0
0
0
0
0
0
0
0
0
0
0
0
0
0
0
0
0
0
0
0
0
0
0
0
0
0
0
0
0
0
0
0
0
0
0
0
0
0
0
0
0
0
0
0
0
0
-0.00222364
-0.00616699
0.00219937
0.00619126
-0.00184195
-0.000891872
0.000887106
0.00184672
-0.0021765
-0.00188091
0.0021724
0.00188501
-0.00211469
0.000100591
0.00210617
-9.2071e-05
0.00211988
-0.00206951
0.00205957
-0.00210994
0.00188794
-0.000589974
0.000741479
-0.00203945
0.00648398
-0.00232957
0.0023216
-0.00647601
0
0
0
0
0
0
0
0
0
0
0
0
0
0
0
0
0
0
0
0
0
0
0
0
0
0
0
0
0
0
0
0
0
0
0
0
0
0
0
0
0
0
0
0
0
0
0
0
0
-0.00422046
-0.00621629
0.00420824
0.00622851
-0.00409023
-0.00440024
0.00437255
0.00411792
-0.000654931
-0.00201298
0.00173635
0.000931568
-0.00195378
-2.51964e-05
0.00196717
1.18126e-05
-0.004145
0.00215854
0.00416987
-0.00218341
0.0042118
-0.00436019
0.00437291
-0.00422453
0.00641775
-0.00421761
0.00416719
-0.00636734
0
0
0
0
0
0
0
0
0
0
0
0
0
0
0
0
0
0
0
0
0
0
0
0
0
0
0
0
0
0
0
0
0
0
0
0
0
0
0
0
0
0
0
0
0
0
0
0
0
0
0
0
0
0
0
-0.00644453
-0.0040573
0.00638919
0.00411265
-0.00213263
-0.00655366
0.00657693
0.00210935
0.000250277
-0.00642345
0.00641058
-0.000237406
-0.00630507
0.00229938
0.00630307
-0.00229738
0.00418026
-0.00637732
0.00634161
-0.00414455
0
0
0
0
0
0
0
0
0
0
0
0
0
0
0
0
0
0
0
0
0
0
0
0
0
0
0
0
0
0
0
0
0
0
0
0
0
0
0
0
0
0
0
0
0
0
0
0
0
0
0
0
0
0
0
0
0
0
0
0
0
0
0
0
0
0
0
0
0
0
0
0
0
0
0
0
0
0
0
0
0
0
0
0
0
0
0
0
0
0
0
0
0
0
0
0
0
0
0
0
0
0
0
0
0
0
0
0
0
0
0
0
0
0
0
0
0
0
0
0
0
0
0
0
0
0
0
0
0
0
0
0
0
0
0
0
0
0
0
0
0
0
0
0
0
0
0
0
0
0
0
0
0
0
0
0
0
0
0
0
0
0
0
0
0
0
0
0
0
0
0
0
0
0
0
0
0
0
0
0
0
0
0
0
0
0
0
0
0
0
0
0
0
0
0
0
0
0
0
0
0
0
0
0
0
0
0
0
0
0
0
0
0
0
0
0
0
0
0
0
0
0
0
0
0
0
0
0
0
0
0
0
0
0
0
0
0
0
0
0
0
0
0
0
0
0
0
0
0
0
0
0
0
0
0
0
0
0
0
0
0
0
0
0
0
0
0
0
0
0
0
0
0
0
0
0
0
0
0
0
0
0
0
0
0
0
0
0
0
0
0
0
0
0
0
0
0
0
0
0
0
0
0
0
0
0
0
0
0
0
0
0
0
0
0
0
0
0
0
0
0
0
0
0
0
0
0
0
0
0
0
0
0
0
0
0
0
0
0
0
0
0
0
0
0
0
0
0
0
0
0
0
0
0
0
0
0
0
0
0
0
0
0
0
0
0
0
0
0
0
0
0
0
0
0
0
0
0
0
0
0
0
0
0
0
0
0
0
0
0
0
0
0
0
0
0
0
0
0
0
0
0
0
0
0
0
0
0
0
0
0
0
0
0
0
0
0
0
0
0
0
0
0
0
0
0
0
0
0
0
0
0
0
0
0
0
0
0
0
0
0
0
0
0
0
0
0
0
0
0
0
0
0
0
0
0
0
0
0
0
0
0
0
0
0
0
0
0
0
0
0
0
0
0
0
0
0
0
0
0
0
0
0
0
0
0
0
0
0
0
0
0
0
0
0
0
0
0
0
0
0
0
0
0
0
0
0
0
0
0
0
0
0
0
0
0
0
0
0
0
0
0
0
0
0
0
0
0
0
0
0
0
0
0
0
0
0
0
0
0
0
0
0
0
0
0
0
0
0
0
0
0
0
0
0
0
0
0
0
0
0
0
0
0
0
0
0
0
0
0
0
0
0
0
0
0
0
0
0
0
0
0
0
0
0
0
0
0
0
0
0
0
0
0
0
0
0
0
0
0
0
0
0
0
0
0
0
0
0
0
0
0
0
0
0
0
0
0
0
0
0
0
0
0
0
0
0
0
0
0
0
0
0
0
0
0
0
0
0
0
0
0
0
0
0
0
0
0
0
0
0
0
0
0
0
0
0
0
0
0
0
0
0
0
0
0
0
0
0
0
0
0
0
0
0
0
0
0
0
0
0
0
0
0
0
0
0
0
0
0
0
0
0
0
0
0
0
0
0
0
0
0
0
0
0
0
0
0
0
0
0
0
0
0
0
0
0
0
0
0
0
0
0
0
0
0
0
0
0
0
0
0
0
0
0
0
0
0
0
0
0
0
0
0
0
0
0
0
0
0
0
0
0
0
0
0
0
0
0
0
0
0
0
0
0
0
0
0
0
0
0
0
0
0
0
0
0
0
0
0
0
0
0
0
0
0
0
0
0
0
0
0
0
0
0
0
0
0
0
0
0
0
0
0
0
0
0
0
0
0
0
0
0
0
0
0
0
0
0
0
0
0
0
0
0
0
0
0
0
0
0
0
0
0
0
0
0
0
0
0
0
0
0
0
0
0
0
0
0
0
0
0
0
0
0
0
0
0
0
0
0
0
0
0
0
0
0
0
0
0
0
0
0
0
0
0
0
0
0
0
0
0
0
0
0
0
0
0
0
0
0
0
0
0
0
0
0
0
0
0
0
0
0
0
0
0
0
0
0
0
0
0
0
0
0
0
0
0
0
0
0
0
0
0
0
0
0
0
0
0
0
0
0
0
0
0
0
0
0
0
0
0
0
0
0
0
0
0
0
0
0
0
0
0
0
0
0
0
0
0
0
0
0
0
0
0
0
0
0
0
0
0
0
0
0
0
0
0
0
0
0
0
0
0
0
0
0
0
0
0
0
0
0
0
0
0
0
0
0
0
0
0
0
0
0
0
0
0
0
0
0
0
0
0
0
0
0
0
0
0
0
0
0
0
0
0
0
0
0
0
0
0
0
0
0
0
0
0
0
0
0
0
0
0
0
0
0
0
0
0
0
0
0
0
0
0
0
0
0
0
0
0
0
0
0
0
0
0
0
0
0
0
0
0
0
0
0
0
0
0
0
0
0
0
0
0
0
0
0
0
0
0
0
0
0
0
0
0
0
0
0
0
0
0
0
0
0
0
0
0
0
0
0
0
0
0
0
0
0
0
0
0
0
0
0
0
0
0
0
0
0
0
0
0
0
0
0
0
0
0
0
0
0
0
0
0
0
0
0
0
0
0
0
0
0
0
0
0
0
0
0
0
0
0
0
0
0
0
0
0
0
0
0
0
0
0
0
0
0
0
0
0
0
0
0
0
0
0
0
0
0
0
0
0
0
0
0
0
0
0
0
0
0
0
0
0
0
0
0
0
0
0
0
0
0
0
0
0
0
0
0
0
0
0
0
0
0
0
0
0
0
0
0
0
0
0
0
0
0
0
0
0
0
0
0
0
0
0
0
0
0
0
0
0
0
0
0
0
0
0
0
0
0
0
0
0
0
0
0
0
0
0
0
0
0
0
0
0
0
0
0
0
0
0
0
0
0
0
0
0
0
0
0
0
0
0
0
0
0
0
0
0
0
0
0
0
0
0
0
0
0
0
0
0
0
0
0
0
0
0
0
0
0
0
0
0
0
0
0
0
0
0
0
0
0
0
0
0
0
0
0
0
0
0
0
0
0
0
0
0
0
0
0
0
0
0
0
0
0
0
0
0
0
0
0
0
0
0
0
0
0
0
0
0
0
0
0
0
0
0
0
0
0
0
0
0
0
0
0
0
0
0
0
0
0
0
0
0
0
0
0
0
0
0
0
0
0
0
0
0
0
0
0
0
0
0
0
0
0
0
0
0
0
0
0
0
0
0
0
0
0
0
0
0
0
0
0
0
0
0
0
0
0
0
0
0
0
0
0
0
0
0
0
0
0
0
0
0
0
0
0
0
0
0
0
0
0
0
0
0
0
0
0
0
0
0
0
0
0
0
0
0
0
0
0
0
0
0
0
0
0
0
0
0
0
0
0
0
0
0
0
0
0
0
0
0
0
0
0
0
0
0
0
0
0
0
0
0
0
0
0
0
0
0
0
0
0
0
0
0
0
0
0
0
0
0
0
0
0
0
0
0
0
0
0
0
0
0
0
0
0
0
0
0
0
0
0
0
0
0
0
0
0
0
0
0
0
0
0
0
0
0
0
0
0
0
0
0
0
0
0
0
0
0
0
0
0
0
0
0
0
0
0
0
0
0
0
0
0
0
0
0
0
0
0
0
0
0
0
0
0
0
0
0
0
0
0
0
0
0
0
0
0
0
0
0
0
0
0
0
0
0
0
0
0
0
0
0
0
0
0
0
0
0
0
0
0
0
0
0
0
0
0
0
0
0
0
0
0
0
0
0
0
0
0
0
0
0
0
0
0
0
0
0
0
0
0
0
0
0
0
0
0
0
0
0
0
0
0
0
0
0
0
0
0
0
-0.0064445
0.00422733
0.00639053
-0.00417335
0
0
0
0
-0.00646824
0.00231596
0.00646304
-0.00231076
-0.00410618
-0.00638756
1.19148e-05
0.00422537
-0.00644317
5.72197e-05
0.00646583
-7.98777e-05
-0.00204244
-0.00647625
0
-0.00629171
-0.0020316
0.00629607
0.00202724
0.000191321
-0.00641788
0
0
-0.0063781
-0.00399379
0.00630362
0.00406827
0.0022814
-0.00629352
0
0
0
0
0
0
0
0.00414455
-0.00634357
0
0
0
-0.00423346
0.00645771
0.00417617
-0.00640043
0
0
0
0.00421487
0.00623569
-0.00428813
0.00426889
0.00432098
-0.00430173
-0.00625115
-0.00422791
0.00232358
0.00626339
-0.0019968
0.000982916
0.00415864
-0.00212387
-0.00208119
0.0010603
-0.0040347
-0.00424752
3.0666e-05
0.00615779
7.92955e-06
-0.00217687
0.00179918
0.000369757
-0.000954086
-0.00198043
0
0
-0.00423686
-0.00620696
0.00423035
0.00621346
0.00437019
0.00420771
-0.00438743
0
0
0
0
0
0
0
0.00638271
-0.00418027
0
0
0
0
0
0
0
0
0
0
0.00640256
0.00410717
-0.00221244
0.00637501
0.00223795
-0.00640052
0
0.00404472
0.00216377
0.00204377
-0.000967933
0.00405079
0.00195867
-0.00105654
-0.0019085
-0.00207649
-0.00620126
-0.0021808
0.000675669
0.00192265
-0.0021549
0.0020904
0.00213837
-0.00207388
-0.00190444
-0.00097825
8.44209e-05
0.00171191
-0.0021301
0.000146847
0.00213851
-0.000155263
-0.00183849
-0.00216315
0
0
0
0
0
0.00234767
0.00659645
-0.00234067
0
0
0
0
0
0
0
0
0
0
0
0
0
0
0
0
0
0.00635107
0.00196547
0.00626434
-0.000124097
0.000123528
-0.00626377
-0.00422284
-1.14565e-05
0.00209545
0.00189777
0.00209093
-0.000122723
0.000122083
-0.00209029
0.00011598
-0.00384388
-0.000116681
0.00169464
0.00129434
-0.00298898
-0.0008597
8.0757e-05
0.000869535
-9.05923e-05
0.000118214
0.00214478
-0.000116631
0.00626897
-0.00625001
0.00202931
-0.000105731
-0.00625868
0.000125371
0.00623904
0.0008916
-0.000100286
9.34586e-05
0
-0.00424344
1.01991e-05
0.00423086
0.00652867
-0.000109218
0
0
0
0
0
0
0
0
0
0
0
0
0
0
0
0
0
0.00626403
-0.000124728
0.00636958
0.00195127
-0.00197181
-0.00634904
0
0.00209228
-0.000131926
0.00212483
0.00192756
-0.0019366
-0.00211579
-0.000871785
-0.00186019
0.000890025
-0.000854948
5.88636e-05
-6.36157e-05
0.000698391
-0.0011105
0.000934586
-0.000522481
-0.00182143
0.00213113
0.00181018
-0.00626845
-0.000141002
0.00205949
-0.00629494
-0.00206436
0.00629981
0.00178365
0.000802681
-0.00422906
-1.19304e-05
0
0
0
0.00649058
0.00205289
0
0
0
0
0
0
0
0
0
0
0
0
0
0
0
0
0
0.00638976
-0.00224382
0.00643693
0.00403916
-0.00409831
-0.00637778
0
0
0.00213461
-0.00218629
0.00162007
0.000959078
-0.00193702
-0.000642122
-0.00409357
-0.00406322
0.00406656
-0.000150274
0.000159759
-0.00212417
7.91741e-05
0.00188982
-0.00189529
-7.37107e-05
-0.000778422
0.00174356
0
0
0
0
0
-0.00404609
0.00636086
0.00410297
0
0
0
0
0
0
0
0
0.00638585
-0.00416937
0
0
0
0
0
0
0
-0.00439255
0.00441362
-0.00442131
0.0042309
0.00621991
-0.00623123
-0.00421958
0
0
-0.000151106
-0.0017235
0.00609652
2.62034e-05
-0.00611106
-1.16645e-05
-0.00629727
-0.0020889
0.00625353
0.00190875
-0.00193211
-0.00412164
-0.00205537
0.00606684
-0.0060733
0.00206184
0.000259617
0.00608718
0.00618148
-0.00619402
-0.00420506
0
0
0
0
-0.00613216
0.00415042
0.006162
0
0
0
0
0
0
0
0
0.00417643
-0.00639006
0
0
0
0
0
0
0
-0.00240604
0.00237343
-0.00652105
0
0
0
0
0
4.03171e-05
-0.00643756
0.00424344
-0.0042315
-9.554e-06
0
-0.00204694
-0.00631351
0
0
0
1.25438e-05
0.00422845
0.00399539
-0.00406917
-0.00630353
0
0
0
0
0
0
0
0
0
0
0
0
0
0
0
0
0
0
0
0
0
0
0
0
0
0
0
0
0
0
0
0
0
0
0
0
0
0
0
0
0
0
0
0
0
0
0
0
0
0
0
0
0
0
0
0
0
0
0
0
0
0
0
0
0
0
0
0
0
0
0
0
0
0
-0.0074254
0.00262433
0.00480119
0
0
-0.00366855
0.00115816
0.00250973
-0.0070978
0.00126405
0.00715095
-0.0013172
0.00716197
0.00192562
-0.00174708
-0.0073405
-0.00366587
-0.000388798
0.00405524
-0.00705246
-0.000912015
0.00712168
0.000842795
0.00732955
-0.000116468
8.48561e-05
-0.00729793
0
0
0
0
-0.00740453
-0.0032292
0.00712439
0.00350934
0.00711129
-0.00221344
0.00205116
-0.006949
0
0
0
0
0
0
0
0
0
0
0
0
0
0
0
0
0
0
0
0
0
0
0
0
0
0
0
0
-0.00285267
-0.0060019
0.00468239
0.00417218
-0.00516956
0.00515805
0.00503181
-0.0050203
0.00285438
0.00600619
-0.00417007
-0.0046905
-0.00203527
0.00605931
-0.00415732
-0.0018769
0.00413474
0.00189948
-6.20657e-05
-0.00198961
-0.00395335
0.00609496
-0.00390713
0.00434433
0.00393298
0.00215186
-0.00418173
0
0
0
0
0
0
0
0
0.00285213
-0.00285212
0
0
0
0
0
0
0
0
0
0
-0.00262142
0.00742004
-0.00479874
0
0
0
0
-0.00398088
-0.00333488
0.00389244
0.00176013
0.00166318
-0.0013524
0.00174471
0.000914615
-0.00130693
0.000552835
0.000191545
-0.00074438
-0.000272727
0.000809255
-0.000536528
-0.00315087
0.00116738
0.00316917
-0.000563897
-0.000621787
0.00142584
0.000671269
-0.00082198
-0.00127513
-0.00185892
0.00387495
-0.00207617
-0.00185716
0.00208349
0.00184983
9.37767e-05
-0.00212191
-0.00387718
0.00405811
-0.00123993
0.00106918
0.00186538
0.00210029
-0.00206673
-0.00619583
0.00406232
0.00231012
0.00630652
0.00235031
-0.00359024
-0.00472295
0.00472283
-0.00262976
-0.00734431
0.00298709
0.00698699
-0.0064973
0.00336921
0.00642646
-0.00329837
-0.00712492
-0.00190462
0.00729291
0.00173663
0.0070281
-0.00124769
0.00130738
-0.00708779
0.00366402
-0.00250715
-0.00115625
0.00405691
0.00175395
0.00410857
0.000115609
-0.0041082
-0.0060177
-0.000123306
-0.00150393
-0.00195198
0.00302813
0.00193972
-0.00151194
-0.00114141
0.00306312
0.00113229
-0.003054
0.00108325
0.00382192
-0.00380676
-0.00109841
-0.000991854
0.00215159
-0.00199717
0.000837434
-0.000509705
-0.00246499
0.000526603
0.0024481
0.000698483
-0.00183953
0.0018055
-0.000664448
0
0
0
0
0
0
0
0
0
0
0
-0.00726236
0.000100073
0.00723889
-7.65967e-05
0.00702679
0.000888003
-0.000830387
-0.00708441
0.00366416
-0.00405352
0.000388812
0.0041064
-0.000123446
0.00195394
-0.000871744
-0.00195398
-0.00613818
0.00192246
0.004966
8.82712e-05
-0.00499761
-5.66584e-05
-0.00494897
0.000970363
-0.00100374
0.00498235
-0.000554676
-0.00153039
0.0014775
0.000607565
0
0
0
0
0
0
0
0
0
0
0
-0.00712134
0.00220758
0.0069634
-0.00204964
0.00741471
0.00323671
-0.00351206
-0.00713936
0
0
0
0
0.00196248
-0.000900409
-0.00411424
-0.00437187
-0.00619533
0.0040182
-0.001491
0.00106642
0.00148635
-0.00106177
0.00110748
0.00125238
-0.00113103
-0.00122884
0.00206315
-0.00150621
-0.0020143
0.00145736
0.00186798
-0.00186159
-0.0020759
0.00387625
-0.0038574
0.00188989
-7.03194e-05
-0.00185396
4.42293e-05
0.00374468
-0.00162458
-7.58939e-05
0.0040869
-0.00392474
-0.0040583
0.00389614
0.00213802
0.00389678
-0.00628416
-0.00234034
-0.00402673
0.00616213
0.00418822
0.00411048
0
0
0
0
0
0
0
0
0
0
0
0
0
0
0
0
0
0
0
0
0
0
0
0
0
0
0
0
0
0
0
0
0.00208172
-0.0010453
0.00207767
-0.00416799
-0.00631493
-0.00238838
-0.00403821
0.00620082
-0.000451165
0.00196067
0.000485589
-0.00199509
0.00235208
0.000222052
-0.00233384
-0.000240294
0.00196862
-0.00499609
-0.00193467
0.00496214
0.000875317
0.00404996
-0.000901772
-0.0040235
-0.00100296
0.00486547
-0.00483548
0.00097297
-0.00229202
-8.68971e-05
-3.42853e-05
0.0024132
-0.00394908
-0.00433585
-0.0060934
0.00395663
0.00230049
0.00606573
0
0
0
0
0
0
-0.00284831
-0.00393289
0.0067815
0
0
0
0
0
0
0
0
0
0
0
0
0
0
0
0
-0.00285444
0.00285443
0
0
0
0
0
0
0
0
0.00645306
-0.00333047
0.00327706
-0.00639966
0.0026264
0.00733371
-0.00697958
-0.00298053
-0.00472145
0.00472158
0.0028464
0.00392808
-0.00677429
0
0
0
0
0
0
0
0
0
0
0
0
0
0
0
0
0
0
0
0
0
0
0
0
0
0
0
0
0
0
0
0
0
0
0
0
0
0
0
0
0
0
0
0
0
0
0
0
0
0
0
0
0
0
0
0
0
0
0
0
0
0
0
0
0
0
0
0
0
0
0
0
0
0
0
0
0
0
0
0
0
0
0
0
0
0
0
0
0
0
0
0
0
0
0
0
0
0
0
0
0
0
0
0
0
0
0
0
0
0
0
0
0
0
0
0
0
0
0
0
0
0
0
0
0
0
0
0
0
0
0
0
0
0
0
0.00285308
0.00393917
-0.00679256
0
0
0
0
0
0
0
0
0
0
0
0.00222645
0.00699439
-0.00205887
0.00324584
-0.0035173
-0.00715395
0
0
-0.00471788
0.00471739
-0.00731842
0.00297212
0.00697062
-0.00643596
0.0032994
0.00638977
-0.00325322
8.93247e-05
0.00731129
-7.10685e-05
0.000896994
-0.000835698
-0.0071591
-0.00405855
0.000389444
-0.00191644
0.00728613
0.0017416
-0.00127206
0.00131942
-0.00709983
-0.00250897
-0.00115627
0
-0.00261494
-0.00478935
0
0
0
0.00630371
-0.00323359
0.0032038
-0.00627392
0.00727122
-0.0069359
-0.00295026
-0.00470837
0.00470882
0.00284823
-0.00284823
0
0
0
0
0
0
0
0
0
0
0
-0.00392837
0.0067764
0.00285443
0
0
0
0
0
0
0
0
0
0
0
0
0
-0.00394126
0.00679549
0
0
0
0
0
0
0
0
0
0.00157171
-0.000317939
-0.000879829
-0.000373941
0.00504921
-0.000842911
-0.00504928
0.000490348
0.000352628
0.00010784
-0.00245141
-0.000115673
0.00245924
0.0050726
-0.00197233
-0.00504629
0.00194603
-0.00114222
0.00116292
0.00502851
0.0017225
-0.000423523
-0.00599111
0.00467755
0.00416569
0.00510631
-0.00509016
0.00497263
-0.00498878
0.00598419
-0.00416357
-0.00466886
0
0
0
0
0
0
0
0
0
0
0
0
0.00393496
-0.00678688
0
0
0
0
0
0
0
0
0
0
0
0
0
0
0
0.00643785
-0.00326404
0.00322775
-0.00640156
0.0073076
-0.00696589
-0.00296312
-0.00471739
0.00471788
0
0
-0.0032375
0.00714321
0.00351432
-0.00220758
0.00204994
-0.00696729
0.00500179
0.00206626
-0.00503503
-0.00203302
-0.00511385
0.00291385
-0.00289543
0.00509543
-0.00105787
0.0010103
0.00172035
-0.00167278
0.000908637
0.00128604
-0.000768839
0.00177566
-0.0019626
-0.00116546
-0.00300323
-0.00399686
0.00139259
0.00162663
0.00107115
0.0014495
-0.00147204
-0.00104861
0.00145277
-0.00126076
0.00158365
-0.0012572
0.000972213
0.00119362
-0.00157941
0.000919485
0.00121276
0.00163773
0.00155975
0.00108233
-0.00151512
-0.0031269
0.000179432
0.00313424
-0.000186778
0.000921028
-0.00314568
-0.000433413
-0.000492811
-0.000818621
0.000189595
0.000629025
0
0
0
0
-0.00743661
0.00480696
0
-0.00719933
0.00223862
0.0070263
-0.00206559
0.00325719
-0.00352179
-0.00717201
0
0
0
0
0
0
0
0
0
0
0
0
0
0
0
0
0
0
0
0
0
0
0
0
0
0
0
0
0
0
0
0
-0.000389424
0.0040534
-0.00088727
0.00708514
0.000830227
-9.9417e-05
7.6603e-05
-0.00723955
-0.00167824
0.000636666
0.00174006
-0.0031693
0.0010904
0.00318752
-0.000531959
-0.000576663
0.00308692
0.00175476
-0.00312308
-0.000823122
-0.00089547
-0.00311364
0.000125937
0.00313346
-0.000145763
0.000855952
-0.000867641
-0.00315761
-0.000526777
-0.00171294
0.000561481
-0.00621214
-0.00118786
0.00117495
0.00622505
-0.00522251
0.000621238
-0.00112239
0.00264181
0.00257215
0.00211806
-0.00102765
-0.00208226
-0.00076335
-0.00160296
-0.00088418
-0.00487473
0.00238153
0.000493416
0.000418971
-0.000192152
0.000229102
0.00492905
-0.00367145
0.00115748
0.00251331
-0.00714097
0.00126843
0.00719363
-0.00132109
0.00193502
-0.00175254
-0.00738181
-0.00737872
9.5781e-05
0.00735735
-7.44084e-05
0.000899153
-0.000838485
-0.00720164
-0.00406204
0.000390028
0
0
0
0
0
0
0
0
0
0
0
0
0
0
0
0
0
0
0
0
0
0
0
0
0
0
0
0.0011557
0.00250787
0.00124913
0.00708535
-0.00130769
0.00190572
-0.00173739
-0.00728967
-0.00107291
-0.00380974
0.00109691
0.00378574
0.00115355
-0.00305856
0.00304611
-0.0011411
0.00195452
0.00152462
-0.00301641
-0.000928965
-0.00102477
-0.000730673
0.000434512
-0.000258515
-0.00323571
-0.000889793
0.00319125
0.000479315
0.000454934
-0.00013573
0.00012591
-0.00310381
-0.00309139
-0.00172548
0.00315496
0.000857249
0.000804654
-0.00108664
-0.00323549
0.000551013
0.000535407
0.000464448
-0.000827238
-0.000367883
0.000533412
-0.00159936
0.00121386
-0.00495216
-0.00121067
-0.00506619
0.00198131
-0.00194914
0.00503402
-0.00366973
-0.000390074
0.00406032
-0.00711648
-0.000910244
0.00718365
0.000843081
-0.000108666
8.10959e-05
-0.00735115
-0.00716794
-0.00193047
0.00734913
0.00174928
-0.00127489
0.00132387
-0.00716547
-0.0025116
-0.00115753
0
0
0
0
0
0
0
0
0
0
0
0
0
0
0
0
0
0
-0.00471609
0.00471538
-0.00261822
-0.00730191
0.00296042
0.0069597
-0.00641265
0.00326479
0.00637459
-0.00322674
0
0
0
0.00479616
0
0.0009326
0.0012041
-0.00112776
-0.00100894
0.00136522
-0.000834504
0.000576763
-0.00279306
0.0022389
-0.00115242
0.00139516
0.00137784
-0.00397095
0.0029199
-0.00291768
0.00396873
-0.0010764
0.00113521
0.00130641
0.00135394
0.000778297
-0.00119964
-0.00182036
0.00090544
-0.000456107
0.00137103
-0.00311639
-0.000947268
0.00311732
0.000946339
0.0030883
-0.000190148
0.000204385
-0.00310254
-0.000659075
0.00124978
0.000763236
-0.00121079
0.00125576
-0.00316136
-0.00172961
-0.000541923
0
0
0
-0.00742326
-0.00324768
0.0071542
0.00351673
-0.00223095
0.00206144
-0.00699843
0
0
-0.00262286
-0.00480016
0
0
0
0.00642817
-0.00331775
0.00326355
-0.00637397
0.00731856
-0.00696831
-0.00297312
-0.0047165
0.00471672
0.00285427
0.0039371
-0.00679118
0
0
0
0
0
0
0
0
0
0
0
0.00285428
-0.00600047
0.00468382
0.00417093
-0.00514617
0.00514511
0.00501406
-0.005013
0.00600118
-0.00417059
-0.00468503
0.000182659
-0.00234304
-0.00013164
0.000138549
0.000237105
0.00197643
0.00187173
0.000994379
-0.00616446
0.000905944
-0.000884614
0.00614313
-0.00233708
0.00237149
0.00010414
0.00247972
-5.8136e-06
-0.00229125
-0.0028464
-0.00598133
0.00466774
0.00416
0.00509063
-0.00509361
0.00497616
-0.00497317
0.0028479
0.00598371
-0.00416569
-0.00466592
0
0
0
0
0
0
0
0
0
0
0
0
0
0
0
0
0
0
0
0
0
-0.0039382
0.00679244
0
0
0
0
0
0
0
0
0
0
0
0
0
0
-0.00742998
-0.00325483
0.00716502
0.00351979
0.007197
-0.00224434
0.0020679
-0.00702056
0
-0.00480335
0
0
0
-0.00367293
-0.00038934
0.00406283
-0.00715998
-0.000902772
0.00722275
0.000840005
0.00738312
-7.7853e-05
6.53949e-05
-0.00737066
-0.00194281
0.00738354
0.00175627
-0.00127713
0.00132529
-0.00720814
-0.00251418
-0.00115809
-0.00366735
0.00115755
0.00250921
-0.00707966
0.00128492
0.00712208
-0.00132734
0.00712116
0.00192358
-0.00174494
-0.0072998
0.000129529
0.00734497
-9.13832e-05
0.000925803
-0.000850281
-0.00715518
-0.00405853
0.000390672
-0.00470746
0.00470698
-0.00261728
-0.00727354
0.00295392
0.0069369
-0.00630656
0.00324195
0.00627496
-0.00321035
0
0
0
0
-0.00740812
0.00479095
0
0
0.00221898
0.00695642
-0.00205424
0.00323052
-0.00351085
-0.00712779
0
0
0
0
0
0
0
0
0
0
0
0
0
0
0
0
0
0
0
0
0
0
0
0
0
0
0
0
0
0
0
0
0
0
0
0
0
0
0
0
0
0
0
0
0
0.00545272
-0.00736237
0.0019095
0.00406897
0.00138518
-4.66577e-05
-0.00418001
0.00779468
-0.00768873
-0.000152606
0.00782969
-4.64472e-05
0
0
0.00242601
-0.00242604
0.00406221
-0.00163529
0
-0.00433699
0.00433693
0
-0.00431784
0.00637365
-0.00482813
0.00522181
0.00471262
-0.00415336
0.00535773
0.00413871
-0.00534308
-0.00159833
-0.000665257
0.000664088
0.0015995
-0.00141427
0.000687706
0.000657378
6.91831e-05
0.0013426
-0.000778953
-0.000613766
5.0123e-05
0
0
0
0
0
0
0
0
0
0
0
0.00544531
-0.00406356
-0.00138311
0.00735004
-0.00190509
0
0.000139718
0.00188317
-0.00184697
-0.000123251
-7.08749e-05
0.00207975
-0.00223322
0.00022434
-0.00141819
-0.00161954
0.000940209
0.00209752
0.000956664
-0.00252056
0.00229606
-0.000732159
0
0
0
0
0
0
0
0
0.00777463
-0.00780709
4.25056e-05
-4.59595e-05
0.00767122
0.000149371
0.00417886
0.00186617
-0.00187395
-0.00014249
-0.00187457
0.00192122
0.00188947
0.000176777
-0.0020329
-3.33425e-05
-0.00194277
2.45142e-05
-0.000136978
0.00205523
-0.00100595
0.000934614
0.000147093
-7.57603e-05
0
0
0
0
0
0
0
0.00242696
-0.00406328
0.00163541
0.002427
0
0
0.00085187
-0.00164605
0.00187967
-0.00108549
0.000932237
-0.00015768
-0.000774557
0.00209562
-0.00103888
-0.00207577
0.00101903
0.00215283
-0.00115053
0.00115929
-0.00216158
0.00288962
-0.00291463
-0.00118577
-0.000943762
0.00148879
0.00227214
-0.00508081
-0.00225752
0.00313153
-0.00509944
-0.00312082
0.00508874
-0.00305809
-0.00408297
0.00310928
0.00208885
0.00194294
0.00700818
-0.00694635
-0.00229279
-0.00304541
0.00711629
-0.00308142
0.00645978
0.00304981
0.00429442
-0.0054964
0.00544865
-0.00424667
0.0049027
-0.00477074
-0.00527813
-0.00640579
0.00434242
0.0030063
-0.00299593
-0.00631693
-0.00706216
0.00301914
-0.00693495
0.0022767
0.00687723
0
0
0
0
0
0
0
0
0
0
0
0
0
0
0
0
0
0
0
0
0
0
0
0
0
0
0
0
0
0
0
0
0
0
0
0
0
0
0
0
0
0
0
0
0
0
0
0
0
0
0
0
0
0
0
0
0
0
0
0
0
0
0
0
0
0
0
0
0
0
0
0
0
0
0
0
0.00243089
0.00163735
0.00243075
0
0
0.00305998
-0.00303747
-0.00645847
-0.00711374
0.00304116
-0.00700015
0.00228579
0.00694081
0.00780039
4.12134e-05
-4.46904e-05
0.00769705
0.000148026
0.00418137
0.00544468
-0.00138384
0.00735126
-0.00190691
0.00692165
-0.00686743
-0.00226767
-0.00301587
0.00705789
-0.00299665
0.00631178
0.00298859
-0.00550949
0.0042859
0.00547063
-0.00424704
0.00491563
-0.00477982
-0.00530536
-0.00640908
0.00434635
-0.00435226
0.0064172
-0.00493337
0.00529769
0.00479373
0.00555573
-0.00435386
0.00428871
-0.00549058
0.00426361
-0.00300094
-0.0042659
0.00521701
-0.00307032
-0.0051854
0.00303871
-0.00224129
0.00220582
0.00510807
-0.00520425
-1.8206e-06
0.00527131
4.25995e-05
0.00533391
-0.000852966
-0.00532385
0.00624261
-0.000931523
-0.00621084
0.000899753
0.0016172
7.53744e-05
0.000116031
-0.00180861
0.00196756
-0.000580053
-0.00162742
0.000239909
-0.000733228
0.00166505
0
-0.00432951
0.00432953
0
0.00430588
-0.00539332
0.00535555
-0.00426811
0.00486662
-0.00474684
-0.00520994
-0.00639212
0.00433598
0
0
0
0
0
0
0
0
0
0
0
0.00694734
-0.00690135
-0.00225357
-0.00302615
0.00709625
-0.00300564
0.00644446
0.00299903
0
0
0.00242755
-0.00242741
-0.00163527
0.00122073
-0.00214772
-0.000130888
0.00320118
-0.00514746
-0.00316757
0.00408813
-0.00522854
-0.00406583
0.00520624
0.000696681
0.00148703
-0.000841113
0.00105025
0.00148553
-0.0010706
-0.00146518
0.00199904
-0.00121557
-0.00195523
0.00117176
-0.00207749
0.00120771
-0.00107041
0.00194019
-0.000450007
0.00171598
0.00050999
-0.00177596
-0.000855994
0.00157798
0.000925084
-0.00164707
-0.0015101
0.000924169
-0.00291309
0.0011526
0.00292787
0.0011305
-0.00215871
0.00216343
-0.00113523
0.0024337
-0.00407419
0.00163959
0.00243373
0
0
0.00313523
-0.00308715
-0.00654537
-0.00714846
0.00306134
-0.00705703
0.00230407
0.00699159
0
0
0
0
0
0
0
0
0
0
0
0
0
0
-4.48196e-05
-0.00417878
0.00777573
-0.00767153
-0.000149018
-4.28129e-05
-0.00195108
0.00137691
0.00153084
-0.00184339
0.000464452
0.00157996
-0.000201022
0.00155848
0.00102346
-0.000992636
-0.00158931
-0.00151269
-0.000117983
0.00163562
-4.94076e-06
0.00156541
0.000413848
-0.000334583
-0.00164468
0.00114992
-0.000872846
0.000425634
-0.000702705
0.00074654
-0.000391901
-0.000947032
0.000592393
0.00182615
-5.63138e-05
-0.0020246
0.000254762
-0.000318342
0.000180156
0.00202765
0.00546015
-0.00737201
0.00191219
0.00138732
0.00781664
-0.00784868
4.22392e-05
-4.54333e-05
0.00771304
0.000149037
0.00418618
0
0
0
0
0
0
0
0
0
0
0
0
0
0
0
0
0
0
0
0
0.0054446
-0.00734947
0.0019052
0.0013827
-0.000713691
-0.000167347
0.000807613
7.34258e-05
-0.00140957
-0.000504181
0.00157571
0.000338035
0.000185116
-8.34299e-05
-0.00161438
-0.0016397
-0.0009298
0.00154218
0.00102732
0.00152227
-0.000681935
0.000677603
-0.00151794
0.000674234
0.000871067
-0.000876893
-0.000668408
0.00169394
0.000691333
-0.00171104
0.0021901
0.000739379
-0.00219398
-0.000735505
-0.00224035
0.00102312
-0.00100003
0.00221726
-4.53378e-05
-0.00418441
0.00781573
-0.00770931
-0.000151755
-4.48841e-05
0.00545536
-0.00406985
-0.00138687
0.00736562
-0.00191062
0
0
0
0
0
0
0
0
0
0
0
0
0
0
0
0
0
0
0
0.0030114
-0.00300005
-0.00642399
-0.00708976
0.00302456
-0.00694258
0.00225451
0.00689565
0.00121264
-0.00199858
-0.00117747
0.00196342
-0.00102282
-0.00139529
0.00158061
0.000837501
0.0013551
-0.000564808
0.000776167
-0.00156646
-0.003232
-0.00194071
0.00321429
0.00402157
0.00143812
-0.00126214
0.00320955
-0.00399788
-0.00318262
0.000538762
0.00074
7.63372e-05
-0.000641217
0.00155024
0.000163597
-0.00107262
0.00139107
0.00056977
-0.00182521
-0.000135631
0
0
0.00243113
-0.00243117
-0.00163781
0
0
0
0
0
0
0
0
0
0
0
-0.00434396
0.00640694
-0.00490349
0.00527687
0.00477172
-0.00429369
0.00548262
0.00425306
-0.00544199
0
-0.00433608
0.00433608
0
-5.00724e-06
0.00215271
-0.00218284
3.51381e-05
8.52468e-05
-0.0024294
0.00024481
0.00209934
-0.00136761
-0.000115861
0.00177752
-0.000294051
-0.00531554
0.00527359
0.00201058
0.0001403
-0.00225533
0.00121263
-0.00619116
-0.00118593
-0.00432938
0.0063802
-0.00485191
0.00520629
0.00473625
-0.00427086
0.00538271
0.00423397
-0.00534583
0
-0.00432776
0.00432824
0
0.00415835
-0.00534855
0.00533218
-0.00414198
0.00482721
-0.00471172
-0.0052091
-0.00637054
0.0043173
0.00704958
-0.00697922
-0.00231469
-0.00305609
0.00713497
-0.00310104
0.00648527
0.00306883
0
0
0.00243364
-0.00243367
0.00407439
-0.00163985
-4.47502e-05
-0.00418751
0.00781972
-0.00771754
-0.000146932
0.00784928
-3.91129e-05
0.00546117
-0.00138814
0.00737445
-0.00191363
0
0.00544714
-0.00735571
0.00190893
0.00406388
0.00138462
0.00781278
4.90408e-05
-4.59297e-05
0.00770291
0.000155801
0.0041832
0.00242713
0.00163601
0.002427
0
0
0
0
0
0
0
0
0
0
0
0
0
0
0
0
0
0
0
0
0
0
0
0
0
0
0
0
0
0
0
0
0
0
0.00221701
0.00258401
0
0
0
0
0
0
0.00221742
0.00699813
-0.00719477
0.0013548
-0.00251021
0.00214598
0.00748151
-0.00718182
-0.000688486
0.000125248
-0.000332474
0
0
0
0
0.00310027
0.00703545
-0.00301134
-0.00351067
0.00661038
-0.00690135
0.00731722
-0.00271702
-0.00263056
0
0
0
0
0
0
0
0
0.00545348
0.00489042
-0.00566151
-0.00417265
0.00528914
-0.00417013
0.00546916
-0.00530236
-0.00489859
0.00567725
0.000127935
-0.00243132
-0.000148022
0.000993464
-0.00486422
-0.000962928
0.00483369
-0.000845347
-0.00406388
0.00403533
0.000873902
0
0
0
0
0
0
0
0.00221618
-0.00221658
0
0
0
0
0
0
0
0
-0.00258239
0
0
0
0
0
0
0.000736487
0.00170766
-0.000721933
-0.00172221
0.00137808
-0.00178204
-0.00134638
0.00175034
-0.00148321
-0.0016685
0.00182607
0.00132565
-0.00197125
0.00150232
-0.00138708
0.00185601
-0.00181669
0.0018017
0.00139307
0.00179917
0.00072776
-0.00179045
-0.0015837
0.000509537
0.00147797
-0.000403801
0.000613085
-0.000502629
-0.00152472
-0.000572826
-0.00162028
0.000594772
-0.000605962
0.000707979
-0.000102017
-0.00147624
0.000713699
0.00145024
-0.00156607
0.000790602
0.0015612
-0.00078573
0.00201354
0.00305147
-0.00197809
0.00303976
0.00284539
-0.00285333
-0.00303182
-0.00298521
0.00374933
-0.00367319
0.00290906
0.00403102
-0.00304678
-0.00192804
-0.00204141
-0.00309827
0.00504479
-0.00506991
0.00312339
-0.00065127
0.000784516
0.00201834
0.00388464
-0.00222023
-0.00638737
0.00645928
0.00391813
-0.00649278
0.0068756
0.00430651
-0.00250703
0.00698031
-0.00213729
0.00717354
-0.00134949
-0.00238536
-0.000927685
0.00108902