/*--------------------------------*- C++ -*----------------------------------*\
| =========                 |                                                 |
| \\      /  F ield         | OpenFOAM: The Open Source CFD Toolbox           |
|  \\    /   O peration     | Version:  5.x                                   |
|   \\  /    A nd           | Web:      www.OpenFOAM.org                      |
|    \\/     M anipulation  |                                                 |
\*---------------------------------------------------------------------------*/
FoamFile
{
    version     2.0;
    format      ascii;
    class       volScalarField;
    location    "1";
    object      nut;
}
// * * * * * * * * * * * * * * * * * * * * * * * * * * * * * * * * * * * * * //

dimensions      [0 2 -1 0 0 0 0];

internalField   nonuniform List<scalar> 
10486
(
0.00337191
0.00337158
0.0033725
0.00337468
0.00337663
0.00337764
0.00338096
0.00338164
0.00338066
0.00337837
0.00337568
0.00337361
0.00337294
0.0033719
0.00336994
0.00336731
0.00336986
0.0033717
0.00337197
0.00337188
0.00337167
0.00337117
0.00337144
0.00336925
0.00337027
0.00337791
0.00337887
0.00338738
0.00339444
0.00340486
0.00318559
0.0028369
0.00262279
0.00250596
0.00254366
0.00276751
0.00324668
0.00338131
0.0033761
0.00337603
0.00337417
0.00337366
0.00337411
0.00337469
0.00337469
0.00337402
0.00337309
0.00337237
0.00337843
0.00338735
0.00338988
0.00339933
0.00336743
0.00274502
0.00232347
0.00201664
0.00181447
0.00164115
0.00155491
0.00155584
0.00166107
0.00190453
0.00235641
0.00312428
0.00337965
0.00337842
0.00337788
0.00337733
0.00337734
0.00337272
0.00337559
0.00337028
0.00338679
0.00339734
0.00339831
0.00304263
0.00257719
0.00208666
0.00176324
0.00152368
0.00134764
0.00119724
0.00108509
0.00103843
0.00106113
0.00116016
0.0013706
0.00174219
0.00236608
0.00318669
0.00338285
0.00338065
0.0033806
0.00337924
0.00338185
0.00337929
0.00339655
0.00341098
0.00313206
0.00233034
0.00193919
0.00157834
0.00133138
0.00113375
0.000990375
0.000872231
0.000787087
0.000741458
0.000741723
0.000791905
0.000910803
0.00112196
0.00143857
0.00186455
0.00241245
0.00306065
0.00339124
0.00338555
0.00338954
0.00338458
0.00340937
0.00280758
0.00249146
0.00181868
0.00149138
0.00117865
0.0011365
0.00092756
0.000787821
0.000683318
0.000607703
0.000569312
0.000556163
0.000578055
0.000642958
0.000772673
0.000953514
0.00121997
0.00148783
0.0019418
0.00233027
0.00309288
0.00321898
0.00339666
0.00335043
0.00238365
0.00205091
0.00148013
0.00115756
0.00108074
0.000821067
0.000666104
0.000546665
0.000453146
0.000395501
0.000370552
0.000375398
0.000403641
0.000451042
0.00053086
0.000650379
0.000819854
0.00105037
0.00134347
0.00164364
0.00221897
0.00240057
0.00320936
0.00302899
0.00210376
0.00175812
0.00124081
0.000969493
0.000850929
0.000637637
0.000549141
0.000413803
0.000321159
0.000266306
0.000238845
0.000249985
0.000285332
0.000334176
0.000385676
0.00048278
0.000606126
0.00079549
0.00101193
0.00126773
0.00172296
0.00191161
0.00259295
0.00289586
0.00193769
0.00156874
0.00109267
0.000840645
0.00069929
0.000514131
0.000414586
0.000308604
0.000213679
0.000160935
0.000141215
0.000156428
0.000214669
0.000251167
0.000306931
0.00039372
0.000476522
0.000634695
0.000834662
0.00105345
0.00143363
0.00162172
0.00221965
0.00295383
0.00188007
0.00146122
0.0010121
0.000755962
0.000611627
0.000448059
0.00034447
0.000223884
0.000131525
9.22752e-05
8.15535e-05
7.84863e-05
0.000168237
0.000218006
0.000215705
0.000280338
0.000383994
0.000531546
0.000734547
0.000927049
0.00126686
0.00146249
0.00202622
0.00322643
0.00192131
0.00142906
0.000985582
0.000716529
0.000566816
0.000421435
0.000317513
0.000197204
8.73441e-05
5.99573e-05
0.000529984
0.000994352
0.000782492
0.000150347
0.000140088
0.000203682
0.000327744
0.000467161
0.000691803
0.000869492
0.00119515
0.00141066
0.00196138
0.00352598
0.0020404
0.00146338
0.00101013
0.000724367
0.000563665
0.000436058
0.000354138
0.000318065
0.000104643
0.000193383
0.000364902
0.000472181
0.000479535
0.000350037
0.000123069
0.000169472
0.000278603
0.000452939
0.000698032
0.000887474
0.00120235
0.00143629
0.00199996
0.00353532
0.00217055
0.0015249
0.00105393
0.00076742
0.000600118
0.000449758
0.00035523
0.000344989
0.000125546
0.000190656
0.0015688
0.00171768
0.000384926
0.00265809
0.000354536
0.000356543
0.000545889
0.000765888
0.000955677
0.00126274
0.0015212
0.00215205
0.00354895
0.00220513
0.00158171
0.00109049
0.000825832
0.000655649
0.000485998
0.000338603
0.000292716
0.0021906
0.00142071
0.000965464
0.000917343
0.00147541
0.00265648
0.00218331
0.00355376
0.000633209
0.000865946
0.000895398
0.00106063
0.00139773
0.0017083
0.00246007
0.00356025
0.00220085
0.00165518
0.00115533
0.000911212
0.000774225
0.000665562
0.000480588
0.000477758
0.00278192
0.00362944
0.000506365
0.000400888
0.00179493
0.00750898
0.00633699
0.00319354
0.000968285
0.00140053
0.00100691
0.00118898
0.00157194
0.00197652
0.00291636
0.00357305
0.00218997
0.00170537
0.00122417
0.000998898
0.000901186
0.00109984
0.00171388
0.000626898
0.000744013
0.00269322
0.00432063
0.00314676
0.0041859
0.00782053
0.00799046
0.00804994
0.00405177
0.00120979
0.00117514
0.00142764
0.00183744
0.00233384
0.00354538
0.00358545
0.0021957
0.00175624
0.00128259
0.00104895
0.00092039
0.000942368
0.00113948
0.00121523
0.00321746
0.010458
0.00501198
0.00556658
0.0124724
0.00847516
0.0125575
0.00852232
0.00599281
0.00267783
0.00149724
0.00179626
0.00224933
0.00282295
0.00355052
0.00359669
0.00226879
0.00185086
0.00136991
0.00111564
0.000996952
0.000827557
0.000889096
0.00201461
0.00560544
0.00717644
0.0210899
0.0317238
0.0328358
0.0181422
0.0127008
0.00629513
0.00510369
0.002267
0.00246994
0.00269874
0.00301125
0.00338906
0.00356032
0.00361641
0.00244986
0.00202107
0.00154543
0.00130446
0.00116185
0.0010785
0.00105054
0.00137399
0.00166117
0.00543243
0.0266724
0.0413681
0.0451462
0.0390387
0.0150356
0.00858878
0.00314975
0.00194315
0.00246012
0.0028941
0.0032279
0.00339189
0.00356935
0.000954245
0.00273653
0.00230652
0.00182765
0.00161394
0.00151655
0.0014737
0.00195208
0.0016277
0.00158689
0.011866
0.0276471
0.0364618
0.0480702
0.0547284
0.0388826
0.0150839
0.00384465
0.00255585
0.00255849
0.00287971
0.00321385
0.0033942
0.00357523
0.00120437
0.00313212
0.0027071
0.00218047
0.0019943
0.00195886
0.00191544
0.00196439
0.00123038
0.00188498
0.0296758
0.0234578
0.023254
0.0402481
0.0587916
0.0525679
0.0238273
0.010044
0.00439492
0.00309024
0.00290042
0.00320996
0.00344284
0.00361796
0.00156637
0.0036652
0.00322055
0.00261308
0.0023824
0.00232561
0.00225925
0.00213912
0.00146925
0.00852614
0.0210344
0.00641824
0.0104404
0.0313722
0.0551402
0.0639451
0.0301292
0.0122576
0.00475617
0.00325943
0.00299243
0.00324607
0.00339001
0.00365326
0.00209994
0.00373342
0.00365032
0.00321037
0.00283335
0.00268244
0.00244674
0.00228031
0.00183888
0.00576742
0.014188
0.00646879
0.00500713
0.0301686
0.052341
0.0650435
0.0366258
0.0111587
0.00456029
0.00318811
0.00301525
0.00320753
0.003289
0.00372698
0.00287972
0.00373778
0.00366149
0.00351866
0.00335852
0.00306974
0.00275062
0.00242551
0.00210199
0.00205725
0.00424319
0.00377011
0.0111156
0.0407099
0.0510801
0.0608021
0.0403925
0.00758219
0.00387142
0.00297619
0.00307619
0.00337876
0.0034079
0.00382314
0.0037617
0.00374043
0.00367081
0.00355753
0.00341795
0.00320803
0.00293825
0.00268664
0.0024271
0.00229001
0.00238742
0.00403403
0.0414074
0.0527355
0.0410679
0.0499736
0.0389116
0.00554485
0.00345098
0.00296258
0.00318847
0.00346371
0.00369054
0.00096827
0.00381185
0.00372168
0.00365675
0.00356081
0.00346423
0.00325193
0.00304819
0.00277218
0.00251882
0.00203938
0.00470106
0.0482705
0.0579731
0.0366595
0.026374
0.0387563
0.0325816
0.00419803
0.00344547
0.00306608
0.00330596
0.00361999
0.00379631
0.00126155
0.00381512
0.0036917
0.00360665
0.00348419
0.00337597
0.00324369
0.00311104
0.00281396
0.00227189
0.00599824
0.0531345
0.0595708
0.0297406
0.0178299
0.0208721
0.0328528
0.0248491
0.00379458
0.00372096
0.00320744
0.00349482
0.00374639
0.0038622
0.00167779
0.00381566
0.00368441
0.00358792
0.00345542
0.00334801
0.00321704
0.00305138
0.00311145
0.00455641
0.051161
0.0618319
0.0261721
0.0118442
0.00897866
0.0139884
0.0245574
0.0161076
0.00418542
0.00386801
0.0033348
0.00360125
0.0038322
0.00390845
0.00216484
0.00385176
0.00368945
0.00358917
0.00345661
0.00334131
0.00318255
0.00308642
0.00666474
0.0366599
0.0642235
0.0403565
0.00963706
0.00872874
0.00925144
0.0121839
0.0153031
0.0105989
0.00457937
0.00402858
0.00345383
0.00368788
0.00388424
0.00397031
0.00278099
0.00391865
0.00370963
0.00360019
0.00347233
0.00334863
0.00322783
0.00398554
0.017092
0.0546617
0.0604902
0.0251185
0.00521311
0.00758448
0.0104515
0.0107967
0.0110617
0.00766718
0.00570833
0.00421376
0.00367732
0.00382694
0.00398454
0.00405498
0.00378116
0.00409973
0.00376161
0.00362716
0.00350611
0.00336925
0.00335393
0.00536634
0.0236448
0.0592869
0.0565625
0.0263949
0.00642148
0.00560956
0.00817052
0.00974817
0.00941288
0.00674395
0.0049606
0.00417459
0.00387771
0.00394976
0.00417845
0.00418959
0.00404861
0.00427971
0.00393969
0.00377608
0.00366578
0.00350005
0.00333745
0.00517673
0.0237657
0.0593485
0.05602
0.0355463
0.0256059
0.0160582
0.00746586
0.00718301
0.0061459
0.00523916
0.0043754
0.00434396
0.00396138
0.00404181
0.00430097
0.00436107
0.00413805
0.00432905
0.00404552
0.00391967
0.00388385
0.00368652
0.00337358
0.00381101
0.0192341
0.0575708
0.0547132
0.0385109
0.0349202
0.0348342
0.0342081
0.0286131
0.0149894
0.00754309
0.00499842
0.00613423
0.00431681
0.00419182
0.0043727
0.0044509
0.00420803
0.00441863
0.00407908
0.0039828
0.0040343
0.00393119
0.00357278
0.00364999
0.00937717
0.04931
0.0554928
0.0371553
0.0334173
0.0337051
0.0351372
0.0366727
0.0376785
0.0295373
0.0208939
0.0123506
0.00654093
0.00467181
0.00449275
0.00451103
0.00414411
0.00463991
0.0041749
0.00400505
0.00416435
0.00421182
0.00400144
0.00364955
0.00826141
0.0273324
0.0476994
0.0403493
0.0346288
0.0351817
0.0362665
0.0339132
0.0321054
0.035269
0.0336531
0.0257309
0.0118035
0.00701839
0.00496215
0.00462003
0.00415131
0.00483227
0.00436603
0.00407564
0.00427811
0.00434433
0.00427079
0.00401545
0.00554991
0.0147524
0.0288717
0.0367464
0.0338466
0.0337992
0.0352747
0.033383
0.0274904
0.0275359
0.0325322
0.0335662
0.0241146
0.0116368
0.00701038
0.00500753
0.00421138
0.00493437
0.00454646
0.00430485
0.00444451
0.00457222
0.00457757
0.00434509
0.00456014
0.0099137
0.0165209
0.0235542
0.0266103
0.0270646
0.0275289
0.026933
0.0236827
0.0191875
0.0251816
0.032956
0.0326044
0.021206
0.0113725
0.00652949
0.00447165
0.00497065
0.0046259
0.00451721
0.00470748
0.00488549
0.00486143
0.00465039
0.00460858
0.00654344
0.0107876
0.0155449
0.0168171
0.0183099
0.0193186
0.0196407
0.0195409
0.0170245
0.0181382
0.0290475
0.034934
0.0314185
0.0163958
0.0100357
0.00545345
0.00499729
0.00463712
0.00464571
0.0048442
0.00503258
0.00500505
0.00485688
0.00480609
0.00554705
0.00792467
0.0114692
0.0132874
0.0167068
0.0183306
0.0185229
0.018689
0.0170053
0.0168304
0.0213593
0.034789
0.0355364
0.0283583
0.0164161
0.00873267
0.00498677
0.00459023
0.00468546
0.00511067
0.0053867
0.00575401
0.00655928
0.00827861
0.0107499
0.0137965
0.0165026
0.0179708
0.0208106
0.0219505
0.0219201
0.0217079
0.0196011
0.0189856
0.0215874
0.0342634
0.0388867
0.0344134
0.0208617
0.0117191
0.000246364
0.00014863
0.000171121
0.00024548
0.000164215
0.000141899
0.000270197
0.000192005
0.000164788
0.000313165
0.000252937
0.00020779
0.00016639
0.000100369
0.000129204
0.000140801
8.85875e-05
9.89471e-05
0.000154906
8.37454e-05
8.66281e-05
0.000191847
0.000155172
8.78362e-05
0.000249367
0.000222772
0.000166637
0.000296366
0.000222782
0.000218932
0.000130807
0.00010397
0.000199209
9.53653e-05
4.25861e-05
8.89107e-05
8.2771e-05
0.000186866
5.39016e-05
7.43394e-05
0.00133559
0.000290761
0.000212805
0.000145506
0.000183343
0.000268879
0.000201325
0.000149521
0.000221155
0.000284509
0.00034231
0.000103419
0.000120215
0.000298964
4.28092e-05
0.000174945
9.31076e-05
0.000480282
0.000879697
0.000189794
0.00118688
0.000456654
0.00052982
0.000190649
0.000183886
0.000102408
0.000276734
0.000249636
0.000167335
0.000317529
0.000372841
0.000362839
0.000136325
0.000174612
0.000391843
0.000438911
0.000925069
0.000157637
0.000392634
0.000627239
0.001683
0.000138111
0.00214452
0.000427331
0.000178411
0.00029906
0.00306997
0.000252078
0.000305682
0.000315976
0.000335028
0.000267168
0.000333869
0.000154882
0.00133257
0.000286689
0.00155043
0.00103291
0.00222115
0.000614345
0.00171858
0.00148598
0.00218404
0.00354986
0.00288544
0.000360962
0.00429264
0.00201016
0.000351918
0.000567918
0.00300936
0.000276241
0.000436375
0.000407788
0.00188331
0.00262543
0.000465117
0.0015757
0.000315359
0.00350874
0.000884421
0.000422233
0.00048848
0.00495477
0.00447519
0.00682469
0.000642734
0.000671871
0.00349972
0.00207191
0.000618881
0.000582621
0.00382048
0.00237988
0.000706282
0.000360449
0.00334837
0.00316438
0.00176932
0.00320275
0.00318513
0.00712993
0.00782393
0.00766469
0.00393478
0.00838543
0.0078909
0.00253899
0.0100078
0.00276859
0.00436817
0.00452377
0.00965852
0.00328523
0.00479196
0.00411437
0.0037385
0.0101557
0.00499978
0.00744273
0.00820994
0.0105386
0.00802768
0.0125421
0.00861112
0.00568156
0.0169949
0.00779288
0.00517685
0.0242443
0.0171783
0.01189
0.0296692
0.0264358
0.00829857
0.0187571
0.0285167
0.000282503
0.000178667
0.000228388
0.000369397
0.000308622
0.000256882
0.000221982
0.000142827
0.000231553
0.00014617
0.000138487
0.000139737
0.000155098
0.0001193
0.000117261
0.000169968
0.000144924
0.000127262
0.000213138
0.000217648
0.000181353
0.000280578
0.000246081
0.00023178
0.000366909
0.000279554
0.000228591
0.000244655
0.000214501
0.000313332
0.00011277
8.74913e-05
0.000103963
0.000154409
0.000595249
0.00129267
0.000220164
0.000234469
0.000537651
0.000227155
0.000197073
0.000219809
0.000348128
0.000298416
0.000209903
0.000200042
0.000182751
0.000213805
0.000161244
0.000268876
0.000123599
0.0013501
0.000656576
0.000821716
0.00100796
0.00041472
0.000469662
0.000192843
0.000223888
0.000512685
0.000130788
9.57336e-05
0.000144209
0.000194564
0.000134062
0.000112375
0.000287627
0.000943917
0.000404125
0.000167388
0.000133454
0.000132987
0.00058039
0.00022663
0.000112359
0.000455363
0.000478072
0.000876268
0.000206178
0.000221815
0.000235567
0.000331186
0.000206604
0.000255766
0.000158096
0.00216445
0.00186067
0.00268278
0.00332734
0.00273905
0.000349957
0.000509477
0.00136153
0.000385051
0.00072003
0.00033857
0.000987011
0.00317472
0.00255261
0.00305681
0.0011225
0.00147912
0.00132953
0.00164251
0.000531609
0.00158781
0.00590025
0.00162146
0.00374813
0.00743405
0.00719573
0.00103802
0.00121327
0.00416281
0.000456113
0.000608789
0.00108355
0.00068487
0.00052667
0.00051055
0.000226543
0.00315476
0.00253233
0.00085532
0.000130617
0.00112343
0.00143286
0.00128592
0.000354828
0.00656112
0.00709001
0.0034056
0.00574857
0.00561913
0.00651433
0.000653757
0.00314734
0.00803846
0.000734404
0.00267552
0.00097271
0.0012337
0.00160225
0.00104225
0.00372209
0.00712362
0.00593397
0.00817348
0.00963817
0.0083556
0.00821533
0.00918069
0.0126142
0.010729
0.0076547
0.00675489
0.00438945
0.00902653
0.00960497
0.00769452
0.0171637
0.0135932
0.0119282
0.0175803
0.0201581
0.0124593
0.0112031
0.0142245
0.000163867
0.000194206
0.00019469
0.000153801
0.000189303
0.00019933
0.000190008
0.000187209
0.000153261
0.000191947
0.000210193
0.000229977
0.000199419
0.000205099
0.000178099
0.000233972
0.000263539
0.000233517
0.000134102
0.000148864
0.000183081
0.000122404
0.000130472
0.000147499
0.000165478
0.000143148
0.00013607
0.000116273
0.00012774
0.000139033
0.0001356
0.000114846
9.50538e-05
0.000123862
0.000118869
0.000149321
0.000176356
0.000153012
0.000167641
0.000263573
0.000227229
0.000226285
0.000209387
0.000215627
0.00025136
0.000221453
0.000250534
0.000254383
0.000248186
0.000229904
0.000208842
0.000129398
0.000146836
0.000170459
0.000158835
0.00014281
0.000114746
0.000203848
0.000155686
0.000154361
0.00152744
5.99271e-05
4.40116e-05
8.24155e-05
6.99814e-05
0.00160665
0.000188345
0.000183837
0.000206663
0.000157327
0.00019576
0.000227495
0.000206021
0.000181159
0.000189687
0.000320579
0.000297064
0.000236134
9.50192e-05
0.00016591
0.000139811
0.00021923
0.000159684
0.00023457
4.41562e-05
3.776e-05
0.000160051
0.00104326
0.000533218
0.000278865
0.00183599
0.000892175
0.000867057
0.000105895
0.000576511
0.00187029
0.000244014
0.000458917
0.000782204
0.000167927
0.000154603
0.000200768
0.000142823
0.000140188
0.00016197
0.000174294
0.000215837
0.00020802
0.000491928
0.000373324
0.000345749
0.000350314
0.000382117
0.000422275
0.00050053
0.00215366
0.000449146
0.000792203
0.00120947
0.00144629
0.000964863
0.00151242
0.000636883
0.00144794
0.00128819
0.000202514
0.000734597
0.00059456
0.002243
0.000231815
0.00017591
0.000148271
0.00139097
0.000208705
0.000239757
0.000248633
0.000231015
0.000318062
0.000259113
0.000297349
0.000336606
0.000286563
0.000288635
0.000249526
0.00022967
0.000205261
0.000324077
0.000891303
0.000891715
0.00264268
0.00154685
0.000876929
0.000850673
0.000990158
0.000844231
0.00161996
0.00291198
0.00287434
0.00172623
0.00159301
0.00443716
0.00169393
0.0055224
0.00478091
0.00175435
0.00164718
0.000572224
0.000894447
0.000357029
0.000309381
0.000292469
0.00100043
0.00132044
0.00223103
0.000353664
0.000752771
0.000823773
0.00242582
0.000990865
0.00302174
0.000362334
0.0010987
0.00210634
0.000549185
0.00104025
0.000869527
0.00219688
0.00142354
0.00106297
0.00569546
0.0064096
0.00581348
0.00621203
0.0065014
0.0056238
0.00529258
0.00637862
0.00625646
0.000674004
0.00056038
0.000716703
0.000619297
0.000538161
0.000666546
0.000560949
0.000723953
0.000981629
0.000267575
0.000225889
0.000807008
0.00354941
0.000234869
0.000408151
0.0076985
0.007209
0.00712851
0.0034028
0.00494378
0.00551014
0.00718071
0.00700194
0.00853135
0.00445444
0.00212065
0.0014519
0.00801513
0.00267476
0.0056835
0.00680569
0.00682529
0.00423974
0.00668025
0.00745362
0.00775243
0.00418932
0.00301476
0.00329618
0.00358514
0.00301847
0.00403055
0.00723945
0.00477809
0.00717173
0.00347397
0.00429645
0.00654916
0.00810618
0.00771404
0.00656761
0.00977053
0.00841361
0.00823846
0.00758654
0.00831502
0.0105108
0.0105892
0.010109
0.00801653
0.00858198
0.0102016
0.0104044
0.0103104
0.0122456
0.00830333
0.0124223
0.00955046
0.00456718
0.0201745
0.0181406
0.00864981
0.00013679
0.000143581
0.00014068
0.000159567
0.000151534
0.000147607
0.000214112
0.000188425
0.000182454
0.000148564
0.000122768
0.000155471
0.000206308
0.000185137
0.0002121
0.00126746
0.00103223
0.00146035
0.000226405
0.000213099
0.000183239
0.000432878
0.000368329
0.000401535
0.000454382
0.00129683
0.000243405
6.93529e-05
0.000506485
0.000184301
0.000185795
0.000192963
0.000359546
0.000304671
0.000309845
0.000839399
0.000938279
0.00178537
0.00375041
0.000461776
0.000355789
0.000419954
0.000457655
0.00029821
0.000339048
0.000369081
0.00331337
0.00221813
0.00174028
0.00118006
0.00100061
0.00244004
0.00164723
0.00304536
0.0032088
0.00524478
0.00620489
0.00421502
0.00246338
0.00158526
0.000733303
0.00620001
0.00749422
0.00668753
0.00896003
0.01158
0.0109905
0.0045546
0.00566044
0.00620015
0.00613509
0.00816855
0.00723433
0.000202031
0.000191895
0.00016635
0.0001613
0.000170273
0.000173442
0.000162723
0.00015692
0.000149282
0.000189957
0.000198293
0.0002126
0.000174239
0.000174917
0.000166005
0.00024362
0.000264439
0.000275204
0.000141128
0.00014059
0.000147953
9.27539e-05
0.000114158
0.000111516
0.000145984
0.000144781
0.000152351
0.00018914
0.000195586
0.000185771
0.00017838
0.000205916
0.000199584
6.7681e-05
8.08186e-05
0.000103047
0.000109071
7.81412e-05
5.61456e-05
0.000137685
8.91085e-05
8.872e-05
5.05774e-05
6.14593e-05
7.33028e-05
0.00105723
0.000511347
0.000125326
0.000225356
0.000232271
0.000235614
0.000128132
0.000172533
0.000168199
0.000230516
0.00027034
0.000259714
0.000219972
0.000156308
9.62785e-05
0.000312968
0.000257953
0.000316469
9.90976e-05
3.41351e-05
4.22062e-05
0.00156568
0.00167861
0.000348958
0.000231832
0.000908834
0.000528552
0.000685137
0.000305196
0.000445823
0.000177216
0.000173455
0.000185564
0.000105582
0.000132993
0.000137136
0.000452698
0.000355671
0.000331513
0.000374963
0.000401614
0.00040863
0.000450047
0.000524308
0.000428776
0.000152779
0.000974511
0.000546275
0.00154028
0.00178419
0.000577985
0.00048658
0.00146727
0.00161567
0.000190659
0.000171519
0.000171425
0.00031418
0.000252611
0.000264947
0.000283492
0.000286296
0.00032699
0.000307976
0.000313712
0.000339216
0.000257334
0.000245828
0.000248094
0.000255727
0.000255724
0.000274136
0.000581732
0.00103551
0.00143334
0.000714985
0.000753314
0.00167688
0.00290982
0.00278893
0.00269917
0.000510993
0.0010044
0.000482505
0.00495555
0.00416309
0.00362682
0.00254355
0.00177632
0.0020537
0.000371681
0.000336683
0.000396852
0.00214344
0.0012928
0.000532365
0.000219746
0.000569104
0.000389483
0.00194259
0.00130974
0.000768241
0.0003188
0.000991268
0.000210287
0.00560781
0.00583629
0.00542344
0.00412617
0.00187476
0.00175989
0.00129643
0.000686953
0.00139568
0.000688374
0.000683875
0.000768186
0.000200664
0.000353081
0.000469857
0.000778955
0.00029777
0.00347226
0.00669154
0.00702326
0.00602764
0.00775048
0.00766098
0.00761142
0.00782244
0.00712785
0.00777243
0.00499343
0.0067504
0.00383728
0.00505136
0.00467237
0.00400756
0.00459169
0.00418876
0.00436688
0.00371584
0.0035464
0.00398599
0.00947627
0.00864146
0.00915368
0.00456367
0.00483627
0.00538727
0.00939546
0.00953261
0.0107014
0.00644587
0.00585819
0.00492689
0.0145025
0.0136386
0.0108339
0.0109904
0.0143441
0.0108698
0.000138104
0.000138429
0.000154754
0.000139768
0.000138147
0.000134416
0.000135229
0.000137289
0.000144102
0.000139971
0.00014091
0.000144664
0.0001637
0.000157618
0.000166157
0.000230292
0.000230943
0.000212916
0.000200742
0.000210637
0.00021542
0.000184287
0.00020246
0.000191496
0.000229756
0.000236772
0.000224168
0.000101629
0.000106764
0.000128975
0.000124133
0.00010338
0.000100685
4.46548e-05
0.000108483
0.00153783
0.000205666
0.000199505
0.000195468
0.000157165
0.000194367
0.000182479
0.000190249
0.000177694
0.000187615
0.000208597
0.000177473
0.000209292
0.000247063
0.000643284
0.00109034
6.53287e-05
0.000471029
0.000274586
0.000923383
0.00120408
0.00158366
0.000809005
0.00110534
0.000915062
0.00156993
0.00130115
0.00010927
6.92207e-05
4.71489e-05
0.000109986
0.000148706
0.000139581
0.000147365
0.000390871
0.000263901
0.00040613
0.000775777
8.77261e-05
6.69987e-05
0.000454978
0.000128349
0.00106267
0.000774162
3.23715e-05
0.00031218
0.000217456
0.000199874
0.00020973
0.000280038
0.000262182
0.000238635
0.000922229
0.00402467
0.0045061
0.000675302
0.000506521
0.00069722
0.000457371
0.000393019
0.000332836
0.000498276
0.000449226
0.000606487
0.00035104
0.000460684
0.000512004
0.00159306
0.00110252
0.000805886
0.00304388
0.00184798
0.00303528
0.00157937
0.00136911
0.00256211
0.00169813
0.00113366
0.00155114
0.00291544
0.00173154
0.00101778
0.000563421
0.000513916
0.000518968
0.00121046
0.00199611
0.000407188
6.61321e-05
0.00020132
0.000121887
0.00098302
0.000221132
8.56286e-05
0.00545172
0.00583575
0.00593782
0.00626185
0.00582368
0.00532085
0.00618166
0.00609404
0.0066373
0.00140611
0.00106778
0.00105295
0.00454342
0.00533685
0.00697675
0.0085007
0.00840219
0.0082001
0.00909308
0.00863424
0.00894462
0.00826738
0.00844414
0.00867778
0.00516823
0.00526765
0.00428818
0.0102542
0.00918891
0.00685578
0.000163531
0.000167261
0.000156631
0.000157334
0.000156071
0.000162363
0.0001924
0.000194524
0.000197907
0.000172375
0.000179235
0.00018408
0.000129354
0.000149008
0.000137438
0.000141178
0.000131412
0.000109236
0.000127529
0.000141409
0.000129227
0.00013442
0.00015108
0.000140192
0.000145488
0.00012744
0.000138516
0.000116979
0.00013667
0.000130294
0.000145305
0.000144708
0.000121291
0.000147296
0.000141581
0.000145314
0.000131515
0.000109384
0.000116478
0.000149298
0.000142848
0.000141016
0.000172808
0.000184526
0.0001682
0.000228237
0.000250889
0.000235442
0.000228316
0.00023541
0.000206111
0.000246616
0.000230546
0.000228691
0.000229721
0.00021895
0.000222943
0.000245957
0.000237765
0.000245203
0.000241474
0.000225672
0.000224645
0.000225236
0.000250942
0.000227636
0.000216813
0.000236857
0.000229131
0.000150865
0.000131359
0.000164649
0.000166404
0.00013974
0.000134239
0.00014174
0.000178293
0.000148106
0.000108941
0.000120899
0.000147979
0.000163157
0.000162729
0.000142916
0.000101758
0.000169246
0.00101732
0.000244008
0.000138023
5.39242e-05
0.000853427
9.05634e-05
8.2582e-05
0.000178114
0.000192225
0.00022282
0.000233858
0.00020034
0.000198472
0.000172892
0.000184313
0.00017127
0.000216896
0.000224008
0.000163944
0.000174729
0.000215806
0.000170004
0.000179148
0.000204253
0.000184824
0.000126021
0.000121182
0.000123751
0.000248378
0.000250787
0.000265282
0.000190044
0.000226508
0.000226489
0.000247645
0.000201854
0.000212688
0.000260196
9.02135e-05
5.67722e-05
0.0023274
0.00153672
0.00122129
0.00122875
0.00154608
0.00182188
0.00258984
0.00337342
0.00146368
0.000355157
0.000250766
0.00023728
0.000248605
0.000242672
0.000245024
0.00070335
0.00085776
0.000662529
0.00127086
0.000801494
0.000868623
0.000158919
0.000161123
0.000176365
0.000160208
0.000174885
0.000170351
0.000162786
0.000184044
0.000181194
0.000138126
0.000139338
0.000142811
0.000159051
0.000165457
0.000135638
0.00015795
0.000191973
0.000178208
0.000423049
0.000380549
0.000636171
0.000428417
0.000425039
0.000435851
0.000629005
0.000613219
0.0004882
0.00124577
0.00101987
0.000381651
0.000498314
0.00164446
0.00135242
0.000524609
0.00140487
0.000452203
0.000180433
0.00017212
0.000201765
0.000248118
0.000215597
0.000193426
0.000231398
0.00025977
0.000264193
0.000276534
0.000289118
0.000282608
0.000266225
0.000241861
0.000258464
0.000226765
0.000244239
0.000243324
0.000769299
0.000925262
0.00057692
0.00169357
0.000726794
0.0007493
0.00400483
0.00277547
0.00295623
0.00196577
0.00144476
0.000972495
0.00249028
0.00338474
0.00289877
0.00115729
0.00145073
0.00208894
0.00115639
0.0016723
0.0012735
0.000502261
0.000481221
0.000388189
0.000777486
0.000679787
0.000654875
0.000580291
0.000771089
0.000855224
0.0029807
0.00338829
0.00209594
0.00130026
0.00075213
0.000802789
0.000182266
0.00083006
0.00167073
0.000717841
0.000487161
0.000667042
0.00186827
0.00147095
0.000936256
8.88491e-05
0.00084309
0.000837939
0.00635169
0.00617024
0.00571613
0.00626599
0.00629504
0.00641535
0.00580647
0.00611974
0.00607692
0.00659333
0.00653975
0.00617708
0.00651449
0.00652926
0.00657062
0.00545707
0.00631356
0.00634877
0.00623777
0.00656515
0.00656342
0.000600127
0.000776225
0.000781241
0.000620733
0.000683536
0.000645981
0.000959264
0.000818243
0.000727606
0.000661303
0.000588191
0.000657181
0.000659839
0.000551254
0.000661874
0.000835697
0.000670408
0.000805441
0.000246213
0.000329544
0.00018276
0.000233353
0.000452185
0.000118855
0.000446415
0.000538612
0.000252448
0.000226463
0.000707808
0.000906156
0.00753601
0.00769014
0.00772228
0.0074631
0.00749581
0.00726568
0.00511044
0.00435804
0.00484042
0.00734369
0.00790206
0.00758221
0.00339186
0.00297162
0.00361345
0.00166133
0.00231916
0.00259195
0.00166778
0.00180305
0.0015885
0.00755071
0.00679323
0.00471276
0.0064655
0.00561689
0.00597587
0.0058733
0.00546594
0.00656027
0.00391337
0.00465846
0.00509628
0.0074991
0.00809854
0.00807271
0.00737878
0.00784466
0.00772709
0.00849468
0.00805923
0.0074626
0.00377095
0.00401139
0.00446034
0.00386614
0.00357909
0.00361793
0.00659714
0.00771521
0.00804792
0.0058943
0.00523438
0.00580574
0.00797147
0.00762637
0.00801577
0.00906683
0.00847765
0.00883789
0.0081449
0.00838388
0.00870708
0.00825113
0.00817429
0.00813368
0.0078357
0.00882448
0.00859214
0.00895516
0.00900794
0.00807417
0.010747
0.00971443
0.00952562
0.00791881
0.00836997
0.00849309
0.00903474
0.00922987
0.00870436
0.00475262
0.00548103
0.00527317
0.00969849
0.0125262
0.0113756
0.000104753
0.000100029
5.62738e-05
8.16227e-05
0.000190363
5.40205e-05
0.00141778
0.000292865
0.000238287
0.000455303
0.00172473
0.00140896
0.00116448
0.000582118
0.000392926
0.000355263
0.000312997
0.0017116
0.0013187
0.000850009
0.000657005
0.000692917
0.000326738
0.00023109
0.000283087
0.000310613
0.000584745
0.000532289
0.000254664
6.04729e-05
8.1542e-05
0.000112406
9.63164e-05
8.97872e-05
0.000443626
0.000124684
0.000140874
0.000231528
0.000593259
0.000770901
0.00127439
0.000250054
0.000255964
0.00128966
0.000296662
0.000375578
0.000385872
0.000904478
0.000936361
0.000666902
0.00190317
0.00144687
0.00222618
0.000475669
0.000724783
0.000690164
0.00223782
0.00096592
0.00128357
0.00101185
0.0011289
0.00279277
0.000613236
0.000845565
0.00086279
0.000646549
0.000620634
0.00169357
0.00168065
0.00110894
0.00112562
0.00035047
0.000481786
0.000615363
0.000673043
0.0015765
0.00292119
0.000374093
0.000408571
0.0010964
0.000962618
0.000339824
0.000109737
0.000246999
0.00101139
0.000844667
0.000194236
0.000216623
0.000213869
0.00112867
0.00091267
0.00150964
0.000970117
0.000996848
0.000947223
0.000640022
0.000462725
0.000157252
9.68395e-05
5.5757e-05
9.32655e-05
9.6122e-05
5.4588e-05
0.000115184
7.46091e-05
5.55165e-05
4.55395e-05
0.00060264
0.000374305
0.000919304
0.00129933
0.00092141
0.0008552
0.00169087
0.00203453
0.00114049
0.00195012
0.00327429
0.00372118
0.0011988
0.0010207
0.00110837
0.00116643
0.00142551
0.00123548
0.00146075
0.000535987
0.000830177
0.000228879
7.53134e-05
0.000709603
0.000235963
0.000535256
0.000694599
0.00125475
0.00145294
0.0013464
0.000269518
0.000185134
0.000132255
0.00029152
0.000287103
0.000582153
0.000443456
0.00155363
0.00102744
0.0015791
0.00339091
0.00273376
0.00097173
0.00277482
0.00273651
0.000205917
0.000254418
0.000126414
0.0010505
0.00128549
0.00114704
0.0011103
0.000791259
0.00112715
0.000904332
0.000822222
0.00109873
0.000220124
0.00090639
0.000740775
0.000548725
0.000352283
0.000669919
0.000852281
0.00148049
0.000695583
0.000579712
0.000593336
0.00100316
0.000954046
0.000648838
0.000676285
0.00171538
0.000573858
0.00057706
0.00388762
0.00392662
0.00300268
0.00235971
0.00331121
0.00273133
0.00105991
0.00194639