/*--------------------------------*- C++ -*----------------------------------*\
| =========                 |                                                 |
| \\      /  F ield         | OpenFOAM: The Open Source CFD Toolbox           |
|  \\    /   O peration     | Version:  5.x                                   |
|   \\  /    A nd           | Web:      www.OpenFOAM.org                      |
|    \\/     M anipulation  |                                                 |
\*---------------------------------------------------------------------------*/
FoamFile
{
    version     2.0;
    format      ascii;
    class       volScalarField;
    location    "1";
    object      omega;
}
// * * * * * * * * * * * * * * * * * * * * * * * * * * * * * * * * * * * * * //

dimensions      [0 0 -1 0 0 0 0];

internalField   nonuniform List<scalar> 
10486
(
2.8444
2.8461
2.84653
2.84734
2.84852
2.84971
2.85058
2.85097
2.85077
2.84998
2.84878
2.84722
2.84509
2.84312
2.84308
2.84531
2.84656
2.84676
2.84694
2.84696
2.84682
2.84651
2.84605
2.84547
2.83884
2.8419
2.84349
2.84698
2.85089
2.8563
2.86189
2.86649
2.86882
2.86789
2.86313
2.85591
2.84961
2.84489
2.84132
2.83745
2.83616
2.83707
2.83866
2.83945
2.83956
2.83823
2.83863
2.83677
2.83315
2.83815
2.83876
2.84717
2.85289
2.86061
2.86863
2.87641
2.88254
2.88533
2.88387
2.8773
2.86633
2.8562
2.84716
2.83973
2.83526
2.83206
2.83015
2.82932
2.8296
2.8305
2.83109
2.83094
2.83073
2.83906
2.83919
2.84916
2.85599
2.8662
2.87602
2.88588
2.89497
2.90203
2.90615
2.90528
2.89738
2.88354
2.86693
2.85227
2.84137
2.83478
2.83074
2.82852
2.82807
2.82517
2.82722
2.82374
2.83161
2.8422
2.84183
2.85505
2.86346
2.87753
2.89286
2.90581
2.92129
2.93746
2.95192
2.96082
2.95831
2.94091
2.91402
2.8859
2.86314
2.84857
2.83832
2.83276
2.83082
2.82591
2.82845
2.82352
2.83446
2.84865
2.84834
2.86829
2.88067
2.91085
2.9103
2.93296
2.95811
2.98976
3.02123
3.04548
3.0548
3.0334
2.99187
2.95051
2.90473
2.87499
2.86207
2.84684
2.8408
2.83074
2.83411
2.82604
2.84138
2.86253
2.86298
2.89597
2.9211
2.93373
2.97652
3.01964
3.09107
3.18782
3.29269
3.37034
3.40949
3.31995
3.22383
3.11987
3.02399
2.94415
2.90788
2.87701
2.86371
2.84296
2.84805
2.83374
2.85174
2.88163
2.88378
2.93381
2.97103
2.9963
3.09551
3.16931
3.37421
3.66818
4.04576
4.28045
4.26355
4.09978
3.84578
3.4226
3.24712
3.0726
2.98547
2.92275
2.89683
2.86435
2.87345
2.85089
2.86128
2.89871
2.906
2.97628
3.03328
3.08695
3.25987
3.41587
3.83525
4.62497
5.68391
6.58226
6.50042
5.99214
5.28106
4.26946
3.6881
3.30258
3.09885
2.98301
2.93683
2.88943
2.8977
2.86667
2.86868
2.91751
2.93056
3.02432
3.11559
3.20213
3.47047
3.75551
4.58073
6.78988
9.96067
16.0091
19.7064
12.3151
7.87736
6.14154
4.60361
3.73214
3.30873
3.07538
2.9929
2.92128
2.92816
2.89438
2.87325
2.93522
2.9613
3.07848
3.20582
3.33977
3.69681
4.16605
5.39611
9.2491
108.17
346.819
548.622
203.43
17.0462
10.0284
6.82292
4.6551
3.69865
3.25461
3.11412
2.99051
2.99368
2.93438
2.8782
2.95081
2.99569
3.145
3.31825
3.50736
4.01531
4.61506
5.21945
9.71578
484.6
452.651
86.4958
137.104
393.357
26.397
11.899
6.1606
4.28322
3.52628
3.29309
3.09285
3.06803
2.97244
2.8806
2.96946
3.02295
3.21298
3.43653
3.7076
4.48159
5.66405
7.00562
11.8055
53.4979
184.566
149.738
2669.5
512.918
21.6767
8.50334
4.91485
3.75941
3.40685
3.1524
3.10922
3.00878
2.88111
2.99072
3.05429
3.27312
3.55191
3.91246
4.89987
7.3517
17.5389
334.099
713.793
162.364
109.63
136.704
1234.86
565.332
163.244
10.2932
5.27036
3.93607
3.50109
3.20214
3.15922
3.04998
2.88162
3.01102
3.09681
3.34163
3.66533
4.07802
5.09119
7.63179
22.3797
309.212
352.321
160.286
116.353
131.482
455.368
219.735
145.194
9.50906
5.77212
4.31646
3.70899
3.31206
3.23893
3.08375
2.88282
3.02862
3.13089
3.42169
3.7958
4.26942
5.37875
7.38064
15.8308
44.026
272.006
190.878
240.408
232.017
150.755
304.986
254.159
57.5591
8.8478
4.95695
3.96152
3.4338
3.30398
3.10439
2.88534
3.04483
3.15014
3.48315
3.8877
4.41683
5.72947
9.08765
52.8154
279.703
232.222
144.546
96.5736
55.9291
111.058
139.818
166.781
139.108
16.3795
5.12712
4.06295
3.48552
3.32915
3.11433
2.88757
3.06361
3.16973
3.50754
3.93025
4.53701
5.8807
10.4688
176.84
241.569
242.956
107.407
52.3915
46.057
56.6419
149.361
169.866
101.362
13.2385
5.05445
4.07499
3.50053
3.34312
3.12389
2.89076
3.07854
3.18979
3.52728
3.94198
4.76183
5.80596
8.14821
17.5264
95.3196
217.943
119.122
60.5575
56.3759
56.9077
99.8753
158.798
43.9726
8.75179
5.07228
4.10613
3.53074
3.37257
3.1323
2.95302
3.09284
3.2095
3.56853
3.97554
4.74784
5.52949
7.41447
10.2205
34.847
195.976
96.261
71.4434
66.2651
64.7773
71.2177
147.197
59.8856
11.2218
5.55687
4.27762
3.63045
3.44474
3.15235
3.00393
3.10876
3.22614
3.60203
4.02916
4.81975
5.46472
7.2626
13.8167
112.324
128.034
106.879
95.5821
76.9218
72.1802
71.5976
109.96
112.457
26.0329
8.28799
4.9326
3.90184
3.57978
3.17104
3.0527
3.11341
3.22861
3.6061
4.04713
4.87266
5.69666
7.58583
16.7914
126.033
112.172
114.892
113.669
95.0911
78.5799
76.7384
95.6909
115.039
34.957
9.84317
5.27166
4.06418
3.68025
3.20882
3.09289
3.11202
3.2254
3.59986
4.04186
4.8664
5.83317
7.6227
15.2306
116.384
116.97
115.521
94.5304
102.965
82.7963
82.7842
96.5092
112.029
33.6529
9.5776
5.26079
4.08481
3.71616
3.24766
3.09837
3.1054
3.2157
3.57761
4.01937
4.82263
5.78712
7.36822
10.6013
40.2732
91.5968
57.247
103.185
98.1001
82.7127
88.3963
99.806
101.132
26.162
8.22478
5.12148
4.06567
3.72707
3.26282
3.09251
3.08772
3.19234
3.5223
3.9477
4.68309
5.49625
6.73546
8.84689
12.0647
19.9597
87.6827
106.458
89.7266
81.0826
89.4698
96.2051
65.9857
16.834
6.98238
4.93633
4.04807
3.74947
3.35543
3.07859
3.05816
3.15152
3.45505
3.84543
4.63186
5.38763
6.67344
8.83941
15.8192
86.93
103.999
94.4204
82.7864
78.1789
76.9268
83.506
42.767
12.8518
6.51793
4.85469
4.06027
3.79497
3.5366
3.03939
3.03672
3.12305
3.41809
3.81385
4.64663
5.44401
7.07285
11.6836
78.4114
97.8654
92.0523
81.6562
68.6858
65.1355
63.0962
72.5487
37.0013
11.6632
6.3415
4.81611
4.10698
3.8495
3.74133
3.02989
3.03188
3.11768
3.41561
3.82082
4.7065
5.86508
9.5961
45.8114
91.755
86.3201
77.3092
65.3815
59.6717
62.1711
60.117
66.1277
36.0007
11.1803
6.21329
4.77689
4.12244
3.88933
3.84551
3.05004
3.03596
3.12233
3.42648
3.85197
4.84251
6.38244
29.825
84.3111
82.1897
73.2797
61.2165
47.2172
61.3211
63.9176
63.9156
63.6627
33.3391
10.4009
5.96761
4.69256
4.1207
3.90181
3.85473
3.14928
3.05667
3.14328
3.46452
3.91527
5.20516
8.83847
61.5218
81.5506
73.768
61.3172
50.9891
35.5033
48.7968
64.8246
65.7983
52.4794
22.2186
8.46868
5.4343
4.55718
4.09918
3.90067
3.84044
3.32562
3.12339
3.20655
3.56484
4.04583
5.46174
12.712
70.8988
78.5249
68.3234
54.3367
47.6848
31.0794
27.1493
32.55
37.1481
22.8118
12.0857
6.93551
5.10182
4.50173
4.04878
3.88291
3.80507
3.42147
3.19911
3.27469
3.67347
4.19612
5.42409
12.6619
70.9287
76.8077
66.6632
53.0121
49.1875
45.5726
33.1909
20.3198
14.6277
11.7302
8.38613
6.78342
5.06038
4.50327
4.03369
3.84017
3.69957
3.49904
3.25538
3.31431
3.75117
4.28647
5.27728
10.2483
67.5456
75.5415
67.1733
54.2914
51.7319
51.7007
51.1902
47.925
37.3402
16.8638
8.81044
7.80784
5.25513
4.54066
4.03973
3.83068
3.45759
3.62783
3.33393
3.34713
3.79633
4.31867
5.18747
9.90508
48.3192
75.022
70.9402
61.3965
54.0283
53.5828
55.2145
55.9408
52.2138
43.6357
30.4539
15.1913
7.00122
4.81234
4.08301
3.83824
3.33126
3.73488
3.45512
3.40734
3.84401
4.35227
5.12077
7.37745
28.2183
67.3155
70.1197
66.2915
61.0409
57.5089
56.2285
56.928
56.806
51.7649
43.6141
32.3601
15.735
6.50124
4.33802
3.88071
3.32019
3.76398
3.58837
3.51132
3.88143
4.38936
5.10091
6.32217
14.1188
42.2244
63.0211
64.2774
60.9799
57.3831
55.0064
54.9282
55.292
51.9826
46.7285
40.7732
30.6149
13.4737
5.65328
4.07697
3.34789
3.76049
3.67964
3.6342
3.93683
4.48321
5.1024
5.94909
8.62205
20.0619
39.8614
52.8101
55.4255
53.9244
51.3799
50.3489
48.891
47.3533
45.6479
42.4609
37.8698
27.2605
10.2904
4.9293
3.46231
3.73577
3.70851
3.71207
3.99155
4.56393
5.11009
5.90327
6.95294
10.7771
19.5441
29.2814
37.3228
41.0755
40.8837
40.2291
39.2758
39.0885
40.0592
41.6516
39.9693
34.6502
20.6841
7.69639
3.87932
3.72265
3.70916
3.74541
4.02946
4.60714
5.13027
5.91726
6.68607
8.43019
12.1877
18.9028
26.8391
32.5051
34.1569
34.034
33.4523
33.6519
34.6266
38.5186
40.0657
38.245
29.9561
14.7903
5.50174
3.69512
3.65056
3.73383
4.1224
4.73682
5.3996
6.56668
8.10947
10.5522
14.2824
19.8645
26.7446
31.7585
33.3361
33.2635
32.6353
32.5025
33.0323
35.8526
39.6765
39.3733
34.7464
20.8531
7.62271
4.17567
5.97581
5.29862
4.2872
6.22553
6.13291
4.23588
5.86351
6.26142
3.97508
5.18216
5.70653
5.50637
8.47209
6.33462
6.45891
12.8198
8.95405
6.48811
15.7784
13.2149
6.12081
11.133
15.6092
5.45959
7.65983
10.5079
4.43692
6.04711
7.46972
6.2738
8.06235
5.30808
9.44969
48.3597
9.10299
14.9724
120.16
62.5732
20.029
676.701
178.055
6.49443
9.9335
15.3679
4.82958
6.90929
9.25099
5.15911
5.24146
4.4492
8.27339
8.75126
5.29931
79.3786
454.134
10.3003
267.546
1176.77
668.732
628.579
103.229
745.736
7.2553
11.8783
22.9087
5.13094
6.55914
11.3813
5.21259
6.42743
5.29899
8.02814
7.66062
6.45248
809.734
114.929
45.094
947.537
1765.5
139.726
34.5385
786.685
2040.56
12.704
21.0627
397.042
7.30748
9.48883
20.1241
6.91294
14.4164
6.99876
9.67236
155.214
15.8463
184.49
167.45
362.682
1617.82
1878.69
144.247
827.926
640.665
970.49
23.54
184.987
619.178
10.3977
13.0202
139.911
15.9082
19.7368
7.69686
222.893
282.41
22.9858
203.814
187.821
463.595
113.969
114.076
207.571
207.551
204.142
229.747
13.7839
13.6581
164.466
183.949
39.0365
15.9784
468.847
286.869
43.9076
131.603
233.912
201.976
123.643
294.438
241.123
224.58
302.099
167.205
179.461
253.542
302.334
278.822
239.561
285.965
187.96
152.572
228.817
235.195
102.229
145.243
248.322
62.7998
100.231
129.142
106.765
60.742
304.514
137.923
114.067
154.46
148.274
224.81
99.9943
57.4709
100.526
58.6248
45.4602
53.7629
101.011
51.8608
44.6755
3.85905
5.13509
4.4399
3.56405
4.28407
5.00684
4.44076
5.97058
4.48503
5.87101
6.86762
6.77776
6.5039
8.32197
7.9694
6.45056
8.12441
8.41039
5.79603
6.45341
7.19853
4.78936
5.59543
6.23151
3.74401
4.59709
5.86038
4.40791
5.10041
4.0493
7.26397
9.53637
7.20214
13.098
140.852
614.377
8.05331
16.4773
76.9503
5.7411
6.61007
7.18644
3.93145
4.66125
6.54535
6.26387
6.04439
5.51634
150.312
592.283
518.702
689.567
706.314
1230.76
393.48
131.267
99.5319
17.9452
957.223
170.149
10.559
27.2981
1406.19
8.86285
10.6187
13.7343
5.51762
5.07774
5.35004
231.128
39.4634
9.13221
1728.69
161.283
81.6458
351.528
672.129
1488.31
8.95474
11.1625
15.6532
7.16655
11.8959
9.29886
46.7439
414.299
270.847
559.333
442.64
610.101
15.4479
19.1439
42.108
30.2705
45.234
22.5557
989.34
538.452
429.116
268.284
543.754
540.905
120.303
119.554
102.088
2392.05
550.38
125.495
598.204
240.794
471.692
30.1578
34.9237
188.994
19.3864
13.913
7.34577
43.7307
30.4129
19.3672
146.852
196.216
290.13
535.378
720.912
809.607
108.353
164.443
193.818
509.367
142.816
298.299
220.091
213.282
222.4
13.6264
43.4287
239.91
38.7881
282.71
26.5104
96.7211
234.636
80.1332
178.856
199.791
227.197
261.002
143.722
116.774
265.685
168.244
141.433
242.302
233.54
233.389
117.194
89.5653
117.938
80.4664
58.7281
69.7207
57.4083
47.701
46.5667
136.822
135.682
62.6425
5.64016
4.80685
5.00061
6.24417
5.14121
5.18272
5.09906
5.13893
6.20032
6.073
5.15235
4.9734
5.19608
5.21198
6.20526
4.87826
4.63793
5.51641
6.69843
5.84882
5.07554
7.01928
6.22334
6.86469
5.44367
5.95065
7.01339
7.88056
7.04752
6.01883
6.9467
7.41446
10.5622
8.4412
8.37385
6.52493
7.34306
8.01427
6.33217
6.21481
6.42056
5.48103
8.47348
6.66164
6.37362
6.32568
5.45979
5.2548
6.3216
5.87139
6.56277
6.93539
5.93544
5.36034
6.42359
6.09806
7.06799
5.02574
5.73623
6.27314
646.19
68.6365
91.7979
43.1092
61.6825
593.18
7.23994
7.97284
6.74488
8.27748
6.74372
5.76484
7.33388
7.12972
8.17276
4.84618
4.7713
5.29121
9.02837
6.53687
6.35458
5.51798
6.05004
5.87109
47.7914
66.6079
1804.94
1320.72
2848.99
176.458
1937.46
2889.92
1159.27
516.892
1422.68
2255.37
364.496
595.606
1132.1
9.18559
10.443
8.45516
14.5419
10.8943
9.67515
8.97142
7.32644
8.61348
5.22269
5.16257
4.87768
5.97408
5.26663
5.35027
5.50071
5.11515
6.32141
1197.11
361.531
355.459
231.66
355.752
1607.27
164.458
1962.36
192.248
1930.75
379.441
543.226
16.8055
20.4893
16.2763
63.2932
23.3223
17.6699
16.8458
11.6825
14.7659
9.06176
7.59119
6.21013
9.70504
8.0705
10.0999
10.8533
14.2705
26.081
214.542
168.974
225.732
928.995
141.25
184.831
163.212
141.344
935.544
589.81
424.289
417.011
59.4164
208.471
107.154
257.696
228.39
90.8592
64.3472
20.7072
27.3803
19.3576
10.9051
10.1644
65.2925
78.8316
402.773
23.0692
47.7814
50.9653
480.412
545.737
276.09
128.863
465.261
504.287
1205.77
105.605
88.2912
502.019
140.222
900.36
229.918
256.733
260.266
231.63
254.005
228.354
315.186
255.435
228.027
54.2929
36.8689
52.3787
27.2528
33.0707
49.9693
50.636
77.812
71.4867
226.67
1005.23
490.43
215.238
2411.45
215.017
322.466
314.079
236.6
147.379
203.615
223.238
236.734
226.871
290.147
253.859
268.159
140.323
261.4
289.642
242.636
179.37
186.875
157.688
224.903
198.684
192.221
115.412
151.178
142.946
153.535
151.626
120.35
79.4736
112.681
80.2758
139.23
122.488
85.5148
110.026
91.2535
127.297
69.4577
82.4354
106.675
77.6066
79.1962
62.8006
199.108
156.009
292.35
114.097
129.292
123.196
135.906
190.287
189.374
73.3976
85.4705
110.752
47.8892
55.614
74.1639
6.48735
6.77886
6.81851
6.49027
6.9496
6.96737
6.02774
6.22298
6.2909
6.96373
7.02059
6.9752
7.07661
8.43571
10.1196
532.346
1040.35
586.071
6.11442
7.05823
8.37329
5.21703
5.24552
5.16045
88.7738
142.064
302.927
316.674
1040.5
11.1579
12.146
13.4108
6.93869
7.61551
7.61238
122.072
139.16
737.224
507.554
2243.66
19.9291
21.878
24.9456
20.2649
23.4531
20.3871
324.136
495.405
793.623
113.054
114.416
451.441
418.336
474.01
744.45
275.782
261.977
368.296
572.525
145.419
66.7864
142.272
87.8216
90.9078
200.407
214.026
229.334
135.737
127.072
139.126
92.0545
83.0081
88.4356
4.75581
4.84252
5.61962
6.22893
5.87998
5.92066
5.79159
5.84389
6.21632
6.0564
5.55956
5.60602
5.94133
5.90786
6.25281
5.27199
4.7024
4.62208
6.73956
6.60118
6.36339
11.0906
7.69391
8.46121
6.9735
6.97674
6.49811
6.33424
6.39102
6.27586
7.91537
6.82502
8.85177
14.6284
10.4125
7.72342
7.55304
10.5113
15.428
86.5502
32.3112
40.4504
56.6724
47.8941
18.9535
957.001
477.153
3066.3
6.59859
6.67619
6.42345
11.2022
8.85542
7.51837
5.28306
4.76915
4.65762
6.14759
6.66149
9.30205
5.37812
5.45058
5.33908
1275.44
56.7421
25.3591
546.256
452.496
179.961
3061.6
1515.45
2845.15
1107.83
544.3
176.985
13.015
12.3378
11.2308
16.1197
11.2513
16.6601
5.17196
5.15378
5.14122
6.32952
5.82261
5.93769
6.03285
5.8779
6.3556
1116.37
1039.76
381.501
497.453
685.945
2261.25
909.838
649.66
777.121
14.7038
14.8021
13.7
23.7937
21.2233
19.3659
18.7145
17.6438
19.0118
7.47724
7.27394
6.63873
12.3842
11.3236
12.5663
13.9243
14.7457
17.2509
1337.36
281.832
392.088
310.592
277.958
1235.79
677.36
371.733
377.161
27.6934
39.8482
29.0557
214.025
188.414
160.61
115.916
60.3128
75.6168
12.0241
12.1808
19.7464
398.571
76.6005
42.8737
131.542
281.817
538.074
523.891
460.72
154.397
790.652
970.771
533.188
227.016
238.905
229.626
187.657
58.3442
54.099
104.255
81.3748
147.335
44.7583
47.0237
49.9899
235.946
465.521
324.74
1068.42
2160.29
211.431
223.31
296.055
324.276
304.205
287.947
284.845
276.654
371.898
315.665
173.252
192.822
176.567
159.5
156.476
149.764
105.596
112.334
108.709
146.35
139.949
137.707
66.1222
68.2863
65.466
105.736
102.314
96.353
64.5217
64.5128
60.0081
93.3949
97.7255
102.874
53.9424
57.3738
62.8429
69.9478
53.4945
63.3632
6.35534
6.22372
5.84953
6.90258
6.69078
6.61435
6.56119
6.67826
6.8216
6.9597
6.85552
6.49819
6.82422
6.91572
6.46987
6.20728
6.22215
6.06082
6.85061
6.33057
6.17643
6.6804
6.48079
7.02837
5.79543
5.69768
6.02005
7.83611
7.39431
6.99692
6.98815
7.38068
7.91316
90.6797
57.0245
858.167
6.74834
6.75448
7.04016
6.15718
6.00536
6.03196
5.93015
5.97736
6.13049
5.50542
5.80267
5.80665
299.298
439.963
396.448
355.074
482.145
314.162
841.133
1031.25
560.277
1289.38
1091.95
927.32
370.913
302.829
60.4225
44.9147
28.2795
192.389
9.50272
9.75522
8.87728
5.15211
5.38945
5.33724
2827.28
334.013
494.206
334.078
475.71
2685.51
1191.24
882.513
446.654
14.568
13.3842
14.4304
8.30544
8.56548
10.1402
1209.92
486.809
421.404
30.2796
24.2454
28.805
35.0409
27.6174
24.7183
34.5137
30.3763
42.3253
21.7385
26.3903
28.6684
528.243
474.959
891.283
473.918
701.007
285.582
543.705
805.741
591.534
634.914
749.701
553.946
1799.07
228.412
175.45
38.0133
30.3675
33.3035
773.2
530.629
118.375
446.082
205.98
1014.52
737.752
192.914
676.742
213.146
216.397
219.706
219.181
215.249
210.928
217.583
217.59
224.025
121.062
76.9706
73.3408
238.846
209.273
212.523
206.033
182.224
233.598
132.851
150.987
173.658
124.388
137.348
123.037
111.135
117.847
125.699
71.9338
77.4297
86.5769
5.81976
5.83169
6.26716
6.26295
5.85314
5.84352
5.83122
5.73494
6.10512
6.1909
5.85925
5.83772
6.43181
5.92043
6.20793
6.80747
6.97959
7.54352
6.68458
6.88381
6.77718
7.04948
7.05032
6.87354
6.87269
6.66228
6.76653
7.58742
6.97283
7.14884
6.62881
6.64719
7.27804
6.28473
6.40005
6.44303
7.08798
7.66091
7.38347
6.52548
6.99925
7.01204
6.25911
6.46195
6.72897
6.20927
5.97798
6.1373
6.03866
6.07876
6.386
5.51903
5.75307
5.87934
6.56073
6.75305
6.50737
6.22944
6.11484
6.26398
6.34453
6.4595
6.48157
6.29326
6.42707
6.24468
6.76646
6.4978
6.49705
6.75208
6.62066
6.87294
6.4333
6.54372
6.69983
6.58498
6.59438
6.38514
7.3115
6.74248
6.79868
5.8774
5.73549
6.10778
161.025
329.538
972.696
1215
225.993
84.3639
464.5
95.9423
126.918
7.41125
7.08573
6.93716
6.43652
6.913
7.26461
7.58757
7.17197
7.92829
7.20911
7.56673
7.59869
7.53671
7.62175
7.33529
8.20342
7.93571
7.94727
6.76294
7.07482
6.58465
5.73865
5.60007
5.49506
6.02626
5.7428
5.76461
5.49634
5.70891
6.00328
1893.5
282.796
309.148
1512.99
453.095
602.569
393.692
425.133
1642.7
1436.35
1202.18
2050.22
273.467
538.196
5464.2
4464.12
712.853
275.096
2691.54
1488.02
3748.79
914.278
598.131
805.281
9.60191
8.92083
8.30095
9.9986
9.11536
9.60235
8.44796
8.76466
9.40378
12.8643
12.1773
13.0967
11.0582
11.349
11.6035
10.4847
10.7521
9.88424
5.25189
5.18883
5.17131
5.59367
5.58482
5.36569
5.34775
5.57959
5.72898
1111.08
1173.12
1065.5
2415.19
841.189
1049.15
399.031
533.176
872.299
16.9909
15.9794
16.2804
18.3727
19.2146
17.8924
15.5515
16.7299
17.808
8.5054
7.71455
8.01482
11.3427
10.3547
9.40123
12.1623
13.7126
12.3453
259.524
272.491
1318.57
1107.97
270.114
261.145
408.163
374.899
632.431
98.253
68.9987
36.9855
121.774
162.588
145.137
37.0753
48.5321
95.751
70.2364
121.72
83.0032
29.7952
30.0197
23.3336
50.7551
39.5873
38.3284
37.6512
42.813
54.8107
527.193
440.447
584.004
755.832
305.778
280.116
1298.62
338.657
584.795
315.716
126.987
336.717
343.637
714.115
604.199
1406.2
935.334
431.768
248.483
247.123
230.564
259.282
252.932
253.938
247.935
250.227
260.347
240.596
242.451
236.982
251.666
248.799
249.38
225.445
243.891
247.121
226.745
236.61
238.728
48.5369
59.043
65.8585
42.6446
51.2986
44.4382
67.6664
60.2422
50.2927
45.2221
41.209
46.3574
61.4247
49.1313
47.4096
56.0717
52.599
62.0599
525.055
458.462
266.96
255.143
350.641
454.566
516.031
341.813
227.301
524.896
245.296
230.136
332.461
303.747
311.842
263.674
267.003
242.152
221.999
197.79
208.115
234.107
249.914
257.278
274.265
277.323
269.125
217.884
263.176
284.928
204.499
247.63
187.824
238.878
251.894
262.299
177.044
166.546
169.584
174.454
165.355
180.493
150.801
157.634
166.126
213.317
214.982
225.437
193.912
204.626
205.807
204.256
203.413
191.043
123.977
116.819
108.471
129.031
134.361
129.439
83.0198
74.058
73.4684
91.6832
97.5488
90.9957
104.452
110.197
118.629
74.718
85.5037
80.8716
90.8944
86.6872
78.0547
108.067
97.2836
98.1368
77.0935
69.0591
69.0572
72.0259
69.3824
77.5015
60.3916
65.0841
67.9406
300.369
274.462
239.299
118.148
117.37
114.28
106.052
101.642
105.821
68.2903
61.7408
66.6657
16.9259
36.8352
54.8157
122.94
365.292
226.046
678.099
248.149
316.477
111.591
150.517
337.989
308.221
112.487
311.428
494.148
458.144
156.205
125.317
116.805
1743.04
1655.9
3171.46
370.408
169.923
182.813
103.406
111.393
156.519
20.9721
30.2619
83.2036
78.2664
89.8382
368.415
191.734
323.636
1282.59
470.897
563.499
893.93
101.044
161.335
1665.42
519.784
839.001
797.018
1221
1350.59
1893.76
459.479
1512.59
284.049
1473.11
1322.71
1607.48
214.929
154.601
119.164
235.103
218.28
247.632
1516.89
933.527
1023.75
1305.36
1034.26
1609.3
158.973
138.032
163.123
221.459
111.868
98.0877
202.313
207.954
263.163
1077.42
889.758
663.861
415.611
400.048
132.159
326.895
394.987
411.953
1024.2
668.264
434.96
1011.79
1122.23
631.029
839.043
1020.12
777.418
354.227
284.071
217.663
116.961
24.5816
18.0373
201.398
152.983
418.902
58.5401
23.4854
39.0298
1107.07
3401.82
751.834
1282.64
1912.26
2055.54
417.342
274.91
247.667
763.108
528.799
476.428
533.562
634.099
632.712
88.1826
121.307
109.138
2579.86
397.051
375.823
355.4
477.509
582.119
173.098
126.38
166.873
554.613
614.105
711.564
2460.96
1255.82
1166.62
2491.91
5580.98
4129.58
220.106
430.155
410.726
1904.29
1241.55
1456.04
1170.28
1202.02
1397.76
417.966
369.15
498.765
988.432
953.902
997.667
362.189
578.8
705.69
353.535
503.93
356.806
89.5137
213.733
2069.19
2316.51
697.858
2212.48
351.195
531.962
327.304
964.891
942.548
1195.63
151.628
194.538
220.539
948.12
975.27
963.729
455.779
438.066
585.499
525.12
409.133
375.194
638.625
686.555
561.273
249.873
362.944
430.39
518.875
558.72
515.084
548.875
299.273
2339.57
222.608
236.581
423.95
591.136
555.677
482.58
1134.94
611.317
658.124
538.048
583.106
636.637
254.222
386.698
261.9
1309.08
781.619
286.966
3164.13
1302.32
886.674
455.565
1355.9
434.107
1725.95
2600.96
645.727
1204
741.297
793.347
1063.55
1825.36
768.111
1489.58
1338.75
1505.12
281.753
124.189
292.452
502.425
480.544
512.545
5588.47
4056.12
1724.9
1954.82
3716.13
2715
5265.87
1197.08
583.142
497.621
710.326
2734.83
2123.28
1590.41
1728.71
769.379
1003.07
1083.44
754.926
806.079
1408.12
296.624
537.899
573.101
520.385
533.278
286.574
1395.8
1063.15
1007.65
336.906
408.719
509.189
1014.78
513.969
411.396
1104.85
626.34
851.643
312.05
429.724
669.414
438.328
345.668
184.368
564.271
487.254
661.177
239.679
359.323
424.525
92.7948
419.719
1097.79
398.09
392.039
300.613
421.369
388.698
403.559
387.264
383.395
409.147
448.523
657.114
604.047
446.646
504.643
488.296
369.48
486.172
418.551
953.681
1020.76
961.554
1108.86
1030.14
997.65
591.514
667.99
622.266
1162.66
1283.15
1306.22
971.214
119.98
60.8249
341.34
3641.68
816.817
1926.09
5874.23
358.945
384.523
313.629
425.16
821.376
3052.26
2181.83
786.867
3564.8
477.194
686.99
587.378
879.27
548.77
451.333
575.046
730.7
718.674
701.752
725.416
712
606.557
689.519
1106.65
364.364
306.225
644.777
378.186
620.004
1127.99
600.208
523.427
321.252
454.477
1158.88
659.327
766.349
426.926
167.03
214.264
997.31
1200.22
2487.57
1587.73
1530.8
1520.61
502.511
603.762
512.765
1366.12
1534.52
557.912
399.429
420.789
406.085
471.917
445.322
410.095
2798.77
6088.27
2591.66
2408.3
1722.61
1471.03
521.901
323.691
295.175
548.308
413.368
608.535
3941.18
1273.95
1617.5
365.095
666.046
1403.06
1601.8
1605.19
1650.41
2655.17
2011.31
1950.8
850.386
938.866
973.537
1809.84
1696.52
1149.05
1079.79
1144.11
2026.37
1922.69
2014.06
2281.93
409.684
496.328
498.586
2599.97
627.403
672.124
1442.7
932.488
744.238
1001.45
978.303
1020.23
602.412
434.07
433.066
501.46
586.169
594.966
700.983
590.836
528.402
451.586
436.004
498.774
689.761
675.149
532.132
409.883
540.506
407.505
566.076
676.551
499.704
1514.36
965.426
226.893
562.634
581.587
622.697
1117.36
1179.11
891.07
478.703
644.02
513.727
608.497
587.553
454.509
269.321
517.346
503.527
232.599
262.973
281.938
457.512
352.274
349.12
480.405
404.802
592.096
356.122
582.468
2337.62
171.737
193.821
121.551
385.351
425.055
1548.29
733.621
837.901
345.222
690.395
691.963
1103.73
3288.09
1552.8
3425.64
2058.61
2880.13
1159.57
746.529
626.477
870.655
238
295.801
193.528
1160.05
1444.98
1682.84
310.36
866.952
855.291
955.139
782.416
372.005
617.305
325.33
641.401
596.811
1413.9
1714.56
3.0484
3.16184
3.16663
3.01986
3.13048
3.15335
2.97853
3.0462
3.0977
2.93091
2.99599
3.00723
3.06186
3.16242
3.12472
3.12985
3.33621
3.23697
3.23277
3.54704
3.408
3.36968
3.88615
3.7218
3.41472
4.00961
3.96691
3.39822
4.00045
4.00167
3.28642
3.67297
3.8541
3.17888
3.36983
3.48412
3.06388
3.20366
3.28281
2.98259
3.07701
3.11129
3.13692
3.26704
3.15877
3.30957
3.6805
3.36767
3.53397
4.29425
3.75267
4.09584
4.3999
4.28736
4.2838
4.80548
4.70531
4.27737
4.80921
4.80243
4.06795
4.4183
4.56389
3.66711
3.91815
4.06121
3.32839
3.68534
4.15032
3.12602
3.33131
3.60126
3.03033
3.08373
3.19152
3.36171
3.51497
3.34396
3.73908
4.34397
3.69375
4.05841
4.41984
4.07464
4.93867
5.72646
5.17764
5.74466
6.10784
5.95483
5.21665
5.41914
5.5457
4.07972
4.49643
4.84866
3.38826
3.75745
4.45804
3.1922
3.29275
3.51619
3.61185
3.80974
3.56289
5.13369
5.59784
4.91308
12.1071
22.6041
16.8919
18.3669
42.321
33.3048
18.9892
24.7373
25.9916
9.84259
13.4658
19.5791
7.72254
8.06824
8.24999
5.97078
6.41343
6.66258
4.3957
4.80287
5.27982
3.5059
3.69832
4.14127
3.91171
4.21156
3.83869
4.4136
4.486
4.23977
5.69229
5.77183
5.47381
18.6874
31.375
11.2033
432.466
536.402
493.81
454.536
367.276
403.384
37.1541
314.793
494.797
13.9564
21.9803
27.8702
9.58716
10.2666
10.6376
6.43104
6.96032
7.38643
4.09733
4.4696
5.76
4.31323
4.91932
4.21997
4.79476
4.96763
4.7593
24.6695
15.8665
7.53555
1181.05
466.867
218.348
124.777
82.2136
87.3056
89.9542
94.3665
80.6434
199.296
165.061
119.619
18.3313
24.4715
86.8048
4.98297
5.42696
7.9114
4.01377
4.18786
3.82376
5.15108
6.07831
4.72563
6.07404
6.72947
6.08127
22.9736
98.7717
30.6837
85.486
176.096
250.131
173.582
89.5569
110.022
157.524
141.27
172.429
140.373
133.791
159.049
165.883
243.986
692.443
5.9585
6.31187
10.0281
4.31444
4.42365
3.9906
6.27242
6.68502
5.0008
8.89155
9.2581
7.61928
651.815
531.817
542.559
128.703
149.57
215.306
138.518
125.952
90.1659
156.654
151.049
130.433
568.326
669.962
1607
395.885
363.651
503.043
93.6741
110.711
183.114
6.44984
6.56624
10.3033
4.51501
4.62015
4.17845
6.1042
6.11848
5.21677
9.07649
8.70162
7.47701
26.5339
24.9906
21.558
441.405
289.166
182.284
123.11
480.154
157.061
183.57
185.191
155.858
108.027
112.111
124.652
328.847
364.7
188.581
413.944
377.215
327.354
218.817
216.399
216.801
45.6219
47.6481
117.24
6.96264
8.81544
16.528
4.73264
4.82761
4.34266
6.32812
6.80679
5.55688
13.8235
19.7141
8.46461
23.8183
25.8462
16.5172
52.7043
57.2485
46.0285
234.44
213.181
256.945
203.016
169.404
170.015
252.468
145.073
158.702
204.522
139.901
160.983
187.243
159.935
139.942
296.961
220.717
207.388
108.009
191.816
169.175
18.5918
44.0198
125.903
23.8052
66.4135
9.47375
281.016
225.869
218.484
257.814
243.059
224.589
221.666
227.892
236.942
54.7981
50.6574
51.6134
123.75
117.141
95.6593
166.274
174.979
148.312
187.401
175.492
176.234
26.4689
15.2797
9.00799
239.622
164.326
29.7343
242.69
207.023
161.23
162.748
186.339
232.212
55.3897
60.3413
122.075
46.5715
54.3476
57.8216
50.2287
53.8366
53.6919
127.836
85.1857
55.3646
175.662
173.076
116.44
93.2878
21.778
10.1913
167.254
165.263
33.4573
177.636
129.165
213.232
62.9714
71.2079
99.9335
57.0682
64.684
68.6509
55.9724
62.6623
63.8963
76.1872
67.3843
62.7739
167.73
135.333
73.7288
21.8936
43.9704
12.8355
177.726
154.537
92.447
116.798
104.782
138.818
74.1214
90.6172
99.4117
67.1001
75.6224
86.5664
64.8044
70.8683
73.732
67.4033
70.2262
70.4322
120.843
90.0759
70.6702
60.6384
104.433
16.1255
140.554
118.493
126.81
107.29
117.357
114.31
99.9457
115.565
117.673
80.044
98.7204
114.683
72.773
78.4046
90.4798
71.502
75.615
77.0818
85.0287
80.3299
75.3232
107.718
105.172
16.4743
114.89
114.569
118.755
116.095
115.247
113.291
111.505
95.887
114.383
103.979
107.348
98.8119
80.2326
84.4679
102.633
77.0118
81.13
82.1263
80.4753
84.0081
81.234
99.9281
36.8226
11.3537
117.49
113.681
66.0267
117.498
101.914
114.754
90.8801
78.9644
80.2856
106.797
105.485
97.9678
85.1426
84.8753
100.173
82.4385
85.9548
83.0563
85.4494
89.951
87.1862
23.3793
11.5979
9.13168
90.0456
19.8494
13.1349
67.0281
38.3369
21.5546
88.7538
108.179
60.4424
104.292
96.3468
107.981
84.1675
81.4959
91.6668
86.9186
88.7236
81.3485
91.1097
91.2271
89.9208
11.0793
11.6802
8.74127
16.9991
30.9575
12.9138
55.8912
105.434
57.6447
108.001
100.143
106.047
93.8884
87.3871
97.156
80.9084
80.2103
84.3811
88.6303
82.0956
80.4392
90.4058
82.8464
81.4481
12.6306
23.3442
10.2134
58.0652
98.9109
47.3605
104.767
96.7148
99.9503
97.1828
88.2733
95.0094
85.2526
75.7601
85.3084
78.6572
67.3939
72.4229
77.2983
65.0363
66.9106
80.0987
71.8358
65.4001
41.2605
91.2268
24.0491
98.2703
90.8639
93.1628
93.7647
84.1042
89.3796
84.6495
73.5942
81.5302
71.7703
61.4186
70.9143
65.446
62.6095
60.671
62.831
60.0764
62.5674
69.7525
66.5208
60.1789
91.2308
86.1318
83.8686
87.925
78.7717
84.5956
80.292
68.1497
76.5823
69.4853
51.8454
65.0353
58.6648
57.7326
50.7231
62.2852
63.0297
61.2953
59.9804
62.1592
62.8542
65.6334
65.0822
62.4862
83.9972
78.1022
82.3712
75.7007
66.9988
75.6417
64.6191
56.5509
63.992
47.6382
38.0602
52.6589
57.4072
48.7806
38.0238
63.8919
64.8039
54.4969
63.6348
66.2435
65.5884
64.9878
63.5819
66.1488
76.4212
72.4777
79.0766
64.4231
58.4745
69.3488
54.4954
50.1543
55.4764
35.8012
34.0157
47.8419
43.6105
29.5151
30.5505
63.2742
38.5186
30.8499
65.9432
46.857
41.8328
59.9473
40.4441
46.8984
71.5609
70.0559
76.9996
57.2106
55.4898
66.7234
49.5896
49.518
53.0092
35.7748
44.9264
48.6149
27.021
29.9177
42.7021
30.5094
21.4309
26.5588
37.0267
16.7556
20.0046
30.7688
14.9961
16.4674
69.9605
70.2712
76.299
55.4599
56.1921
67.5559
49.8478
51.3228
54.1508
46.8187
50.3415
51.0098
37.8797
49.081
50.1075
22.3571
44.7495
48.4922
15.4927
29.9691
42.7779
13.0162
13.3116
24.3019
4.50414
4.42132
4.16456
5.9057
5.50546
5.63375
5.09243
5.06825
5.40648
4.77721
4.80465
4.2863
4.69727
4.69051
4.3033
4.21376
4.26756
4.00743
5.1631
4.85256
4.89922
5.37851
5.37941
5.61031
5.77302
5.66598
5.27964
7.89608
7.32668
7.584
5.9893
6.2883
6.73591
12.0084
10.4995
10.7497
8.00012
8.46651
9.53619
15.4467
9.35128
9.61297
8.7291
9.20441
14.8891
13.2568
8.8292