/*--------------------------------*- C++ -*----------------------------------*\
| =========                 |                                                 |
| \\      /  F ield         | OpenFOAM: The Open Source CFD Toolbox           |
|  \\    /   O peration     | Version:  5.x                                   |
|   \\  /    A nd           | Web:      www.OpenFOAM.org                      |
|    \\/     M anipulation  |                                                 |
\*---------------------------------------------------------------------------*/
FoamFile
{
    version     2.0;
    format      ascii;
    class       volScalarField;
    location    "1";
    object      p;
}
// * * * * * * * * * * * * * * * * * * * * * * * * * * * * * * * * * * * * * //

dimensions      [0 2 -2 0 0 0 0];

internalField   nonuniform List<scalar> 
10486
(
4.53086
4.98984
5.37786
5.92533
6.54702
7.24599
8.00517
8.79683
9.58397
10.3211
10.9588
11.4519
11.7677
11.8951
11.8385
11.6242
11.2864
10.8615
10.3892
9.90349
9.43514
8.9906
8.66427
8.24577
4.4323
4.92206
5.29325
5.85758
6.48313
7.19644
7.97656
8.79684
9.61935
10.3948
11.0676
11.5865
11.9137
12.0378
11.9648
11.7259
11.3596
10.9044
10.4052
9.89556
9.41142
8.94186
8.6241
8.16957
4.21761
4.74622
5.10474
5.69406
6.33311
7.08107
7.91288
8.80303
9.71231
10.582
11.3406
11.9211
12.2727
12.3849
12.2627
11.9613
11.5232
10.9938
10.4289
9.8628
9.34005
8.82578
8.50262
7.99693
3.89353
4.44993
4.80331
5.41551
6.07439
6.87342
7.78285
8.78844
9.84641
10.8842
11.7966
12.4851
12.8775
12.9633
12.7648
12.3506
11.786
11.1282
10.454
9.7951
9.20987
8.63591
8.28936
7.73121
3.47825
4.04615
4.391
5.01434
5.68836
6.54153
7.55482
8.7159
9.9851
11.2788
12.4295
13.2748
13.7214
13.767
13.4602
12.881
12.1306
11.2933
10.4615
9.6784
9.01135
8.36885
7.99186
7.38092
2.98121
3.54143
3.8639
4.47578
5.13858
6.04484
6.90275
8.17074
9.62361
11.1941
12.7088
13.88
14.5443
14.6699
14.3292
13.6621
12.7427
11.7184
10.4037
9.47516
8.71707
8.00595
7.60129
6.94015
2.4058
2.933
3.20996
3.77372
4.37509
5.17863
6.31717
7.69246
9.46784
11.5358
13.6092
15.2375
16.0704
16.0966
15.5086
14.4954
13.1908
11.8378
10.6089
9.12957
8.27991
7.51714
7.09713
6.3971
1.76234
2.22462
2.42709
2.89688
3.35616
4.21486
5.19831
6.56047
8.55868
11.2122
14.2023
16.6357
17.7553
17.652
16.8976
15.571
13.8475
11.8051
10.2372
8.54565
7.64888
6.87251
6.46164
5.74586
1.07217
1.43413
1.53126
1.85986
2.13548
2.776
3.55796
4.89253
6.92542
10.167
14.4445
18.3786
19.7073
19.1037
18.4181
16.7774
14.2867
11.3494
9.49198
7.61394
6.77988
6.04709
5.68473
4.98896
0.364457
0.590638
0.552745
0.670746
0.666292
1.01526
1.27355
2.00916
3.47547
6.45639
12.3728
19.6586
21.6685
18.9936
20.0815
18.4179
14.1041
10.0152
8.11581
6.27756
5.6445
5.03126
4.76916
4.1389
-0.326243
-0.263892
-0.453602
-0.589242
-0.930965
-0.955031
-1.488
-1.92919
-2.66859
-3.64751
-5.46811
6.27959
-6.82009
11.4
27.7016
18.7938
11.7535
7.91266
5.88919
4.52542
4.25122
3.84613
3.73844
3.22132
-0.961813
-1.07724
-1.41465
-1.80226
-2.4672
-2.87589
-4.26598
-5.91702
-9.0219
-15.671
-62.062
-83.178
-18.9167
-7.89694
-72.602
6.07218
3.92389
3.10582
2.81507
2.52472
2.67429
2.55667
2.6415
2.2762
-1.50567
-1.79803
-2.25733
-2.85195
-3.76235
-4.42567
-6.29202
-8.70181
-12.4758
-17.1209
-16.3285
-23.4174
-28.8971
-38.2315
-16.2694
-7.85856
-2.68815
-0.469812
0.475249
1.05972
1.26944
1.54821
1.35433
-1.91976
-2.39908
-2.93038
-3.67201
-4.73163
-5.50787
-7.44458
-10.0034
-15.5992
-35.7582
-44.6923
-26.0971
-20.6757
-27.6548
-67.2321
-41.2805
-17.9873
-6.58347
-2.93794
-1.26083
-0.358734
0.109426
0.538589
0.509792
-2.20022
-2.86014
-3.41145
-4.25599
-5.36728
-6.21377
-7.88244
-9.65836
-12.5949
-21.8995
-41.9566
-45.1311
-5.71987
-10.7451
-5.17435
-22.4717
-13.0885
-5.76779
-4.05755
-2.49856
-1.44058
-0.837778
-0.32028
-0.211671
-2.35979
-3.17307
-3.70995
-4.65597
-5.7594
-6.64787
-8.10972
-9.20899
-9.15459
-5.63631
-8.37195
-24.3319
-15.8293
-7.45107
-3.20243
-2.53688
-2.25146
-5.98445
-4.8179
-3.25982
-2.21349
-1.55412
-0.995897
-0.781564
-2.41636
-3.34071
-3.86333
-4.91466
-6.03045
-7.0312
-8.66374
-9.95438
-11.1559
-13.0544
-15.0444
-20.5389
-17.6912
-12.5554
-10.2129
-12.4766
-19.972
-11.4343
-6.48167
-3.93794
-2.80719
-2.06659
-1.48907
-1.18742
-2.38744
-3.35609
-3.90156
-5.00054
-6.20729
-7.38692
-9.35927
-12.0215
-17.1986
-39.297
-55.3899
-27.0402
-19.7537
-16.0063
-14.7148
-18.48
-25.0144
-13.132
-6.87437
-4.31639
-3.09261
-2.35693
-1.79906
-1.41877
-2.27705
-3.21602
-3.78252
-4.88049
-6.13066
-7.92246
-9.72226
-13.0046
-17.6055
-26.9242
-28.5128
-21.8317
-20.5524
-17.6411
-14.361
-10.9374
-4.5046
-3.82544
-4.10753
-3.74603
-2.93411
-2.39597
-1.9229
-1.48495
-2.06872
-2.94231
-3.46844
-4.50898
-5.69296
-7.4109
-9.36836
-12.3964
-15.9114
-19.3446
-18.6692
-21.931
-23.888
-19.6657
-13.3634
-6.75843
-0.162542
-1.17944
-2.88819
-3.02958
-2.72848
-2.31751
-1.93119
-1.42368
-1.77372
-2.53729
-2.9742
-3.88373
-4.914
-6.39929
-8.38416
-11.3461
-15.0614
-20.1814
-27.7256
-34.0682
-32.1873
-23.4114
-13.7204
-6.5419
-2.24465
-2.69078
-3.47087
-3.26704
-2.85021
-2.2906
-1.92613
-1.27613
-1.40679
-2.01896
-2.3324
-3.04132
-3.82512
-4.91307
-6.76022
-9.23375
-13.1513
-20.8782
-36.2697
-45.8394
-34.9592
-25.0962
-14.186
-7.97677
-6.75807
-7.38283
-5.20533
-4.13855
-3.22424
-2.34722
-1.93645
-1.06229
-0.988357
-1.419
-1.58629
-2.04675
-2.48805
-3.10851
-4.3961
-5.89108
-8.81692
-14.8514
-28.6791
-35.8784
-27.1363
-21.7917
-13.3703
-9.10451
-10.0078
-11.7267
-7.10086
-4.96447
-3.59702
-2.39308
-1.91696
-0.79596
-0.541748
-0.784158
-0.798923
-0.996868
-1.05868
-1.16538
-1.86054
-2.16731
-3.31284
-4.92951
-9.59175
-14.7834
-17.3541
-17.2242
-12.5322
-10.077
-11.0778
-12.4197
-7.97137
-5.23632
-3.776
-2.30463
-1.82804
-0.483599
-0.0957357
-0.166755
-0.0452067
-0.00227446
0.259803
0.611252
0.4558
1.01382
1.02911
1.07502
-0.761973
-5.38961
-11.7295
-15.5052
-15.2629
-13.7369
-12.674
-11.5162
-7.54933
-5.10212
-3.60371
-2.14761
-1.58237
-0.143464
0.317824
0.387652
0.613024
0.848585
1.34506
2.00269
2.31736
3.39034
4.0452
4.66382
3.40045
-2.32707
-10.1165
-17.5824
-21.7851
-19.9024
-15.614
-11.6415
-7.06339
-4.7817
-3.23126
-1.82901
-1.28038
0.110681
0.670932
0.846738
1.13922
1.51028
2.15132
2.99648
3.62402
4.98779
6.00918
6.81671
4.13058
-1.40097
-9.89078
-20.0616
-25.4063
-23.2973
-17.1792
-11.4683
-6.38124
-4.13562
-2.64794
-1.36301
-0.92778
0.247199
0.952116
1.19753
1.51538
1.96041
2.65142
3.5797
4.32256
5.77505
6.90708
6.50441
4.22805
-0.253428
-8.90202
-20.4076
-26.1455
-23.3604
-15.9021
-9.82149
-4.9537
-2.97283
-1.77158
-0.727144
-0.464788
0.359814
1.16253
1.42455
1.73582
2.18976
2.84182
3.69232
4.4643
5.63619
6.15719
5.66021
4.04282
0.191172
-6.55455
-16.1702
-21.643
-18.94
-11.4571
-6.66642
-2.79129
-1.41791
-0.645146
0.0611777
0.122645
0.558948
1.2868
1.53258
1.81236
2.21224
2.76341
3.43475
4.08977
4.75041
4.75551
4.42467
3.00883
-0.190084
-4.4816
-9.49607
-12.3036
-10.6017
-5.67069
-3.06163
-0.549741
0.202735
0.566288
0.912147
0.790906
0.874633
1.33142
1.53372
1.76194
2.06987
2.47013
2.89399
3.34079
3.31028
3.13255
2.77415
1.37179
-1.21913
-3.87005
-5.82884
-6.09419
-4.45201
-1.54829
-0.163294
1.39065
1.66068
1.70304
1.72457
1.46553
1.26981
1.28652
1.44593
1.61209
1.81554
2.04008
2.20255
2.39515
1.67648
1.24125
0.676449
-0.657341
-2.81093
-4.62014
-5.11234
-3.96224
-1.81498
0.639478
1.79422
2.85537
2.85015
2.66517
2.4293
2.08515
1.6599
1.17556
1.28722
1.39827
1.50696
1.56185
1.50523
1.37521
0.147222
-1.38486
-2.45293
-4.08845
-6.2197
-7.2554
-6.35844
-3.78851
-0.593909
1.82305
3.08551
3.92051
3.77051
3.42315
2.97983
2.58738
2.01396
1.02117
1.09557
1.16431
1.18921
1.12742
0.878507
0.347885
-0.883668
-3.3449
-5.54911
-7.90931
-10.7218
-11.59
-9.40326
-5.23902
-1.05714
2.06821
4.31988
4.57685
4.40875
3.96453
3.37268
2.94869
2.27114
0.843612
0.895716
0.94053
0.906563
0.793664
0.425979
-0.313369
-2.02082
-6.17018
-9.78906
-13.8565
-17.123
-16.8106
-12.5365
-6.25888
-0.411862
2.84809
4.4076
4.85882
4.73582
4.27506
3.61336
3.11852
2.38077
0.663857
0.706975
0.743423
0.682301
0.556251
0.179343
-0.679653
-2.12372
-5.47984
-9.10037
-13.0463
-16.1967
-16.2071
-12.4589
-6.52776
-0.506767
3.1913
4.61665
4.90967
4.76239
4.33426
3.6575
3.13621
2.30934
0.497593
0.54044
0.579357
0.52667
0.433734
0.161996
-0.428106
-1.40629
-3.28898
-5.83116
-8.71938
-11.1774
-11.6164
-9.28705
-5.04595
-0.323771
3.25142
4.65099
4.72487
4.46282
4.07473
3.43385
2.93328
2.04083
0.34332
0.383142
0.422769
0.394948
0.357996
0.220198
-0.0381995
-0.50359
-1.32281
-2.64558
-4.29854
-5.88524
-6.47948
-5.4344
-2.97845
0.124916
2.81513
4.10517
4.19045
3.8985
3.5652
3.01088
2.58732
1.65024
0.212674
0.258081
0.30135
0.311539
0.338443
0.329144
0.308569
0.221298
0.0196793
-0.418203
-1.10227
-1.92181
-2.46053
-2.28083
-1.28051
0.29803
1.89558
2.83701
2.91682
2.64061
2.37814
1.97832
1.69462
0.937251
0.00638659
-0.0230159
-0.0411679
-0.0753593
-0.11077
-0.171845
-0.2383
-0.328084
-0.456149
-0.663658
-0.946684
-1.25395
-1.47011
-1.43532
-1.05372
-0.314053
0.645087
1.54167
2.19268
2.48043
2.41386
2.06202
1.78127
0.925763
16.1219
17.7841
14.4264
17.6115
19.5036
18.1615
17.7535
19.0478
19.5219
17.1116
18.3311
18.9742
13.8963
12.1568
7.23819
17.9703
18.8465
12.9848
19.6908
21.975
19.6672
19.1998
19.273
21.5645
18.5325
19.7944
19.2433
17.0486
18.6181
19.7711
5.95866
-1.75724
-1.79149
11.5543
-1.33426
-1.85517
18.7229
7.69871
-0.366215
22.2688
-7.87728
8.29688
18.8919
20.0591
25.6359
14.6061
12.9535
18.9466
-2.52472
-8.00605
-5.00527
-3.36156
-13.487
-8.53944
-6.57847
-61.5296
-15.1014
5.21567
-145
-71.4377
-8.86269
-21.3373
-104.194
12.439
5.4309
9.24968
8.49992
4.68999
5.28139
-8.58806
-11.7174
-8.14005
-14.1758
-16.2761
-12.0813
-110.892
-24.2922
-17.149
18.8249
-42.7623
-27.186
5.67296
-10.4889
-36.1215
4.08384
-6.53147
-11.8694
3.14359
-2.01657
-6.31314
-12.0863
-14.3979
-9.84577
-16.7859
-27.484
-15.0782
-22.5964
-25.5934
-41.6041
-45.0898
-66.5674
-29.3429
-15.0096
-45.4445
-64.0686
-8.23597
-18.6555
-42.3419
-3.68478
-7.47436
-17.2079
-14.5402
-12.6891
-9.82647
-30.2031
-23.2398
-13.2674
-27.8147
-44.3437
-53.5376
-20.8967
-9.00538
-45.6299
-20.1545
-17.4799
-25.6956
-8.09607
-7.63733
-15.0611
-18.4597
-6.50473
-9.25549
-45.323
-6.92842
-5.89595
-6.19942
-17.085
-27.0346
-11.0665
-8.15871
-15.1176
-22.3401
-2.31397
-1.78275
-15.323
-1.7557
-2.72503
-6.77136
-11.9832
-10.8887
-23.1072
-19.8334
-12.913
-17.4821
-18.1946
-20.4277
-8.58542
-12.7091
-17.5263
-3.13635
-9.47601
-12.0584
-2.42294
-10.3023
-9.37489
-20.2128
-28.5776
-47.2159
-18.3613
-20.4405
-25.6172
-13.113
-16.1455
-19.2029
-10.292
-14.1276
-15.3662
13.5248
13.9325
10.3478
15.9448
16.8701
18.2188
9.68529
6.6998
4.05041
16.0166
15.8072
14.4421
19.2029
20.1996
18.9693
19.54
20.1035
20.557
18.8419
19.0157
19.3662
17.9494
18.6213
19.017
14.612
14.6659
18.1735
3.24472
-1.70767
-0.903051
8.39831
5.34792
3.62787
18.9657
11.7492
-5.8227
20.0451
24.7352
13.0235
16.7733
16.8904
18.8402
11.2294
9.4553
12.2831
-3.06204
-5.73094
-5.4121
-1.37411
-76.2559
-68.4497
15.2104
-29.953
-75.1058
10.0551
-5.3077
-17.8147
26.4905
57.0331
-4.64377
20.1498
9.92815
95.446
15.5483
13.31
17.3001
-10.342
-12.1274
-10.5415
-50.2888
-16.8269
-16.6493
-85.9192
-38.3576
-30.1407
-5.31009
-13.1301
-96.2647
3.65958
0.329021
-0.468288
-14.4177
-16.0821
-13.7548
-16.2051
-43.7383
-31.1366
-20.0759
-38.8116
-50.825
-5.46696
-8.77719
-12.6757
-18.7373
-18.4848
-15.6495
-47.8701
-62.2055
-29.4049
-34.9825
-38.714
-78.5312
-25.6958
-12.5834
-9.10487
-72.1309
-8.39113
-12.485
-44.7476
-26.1892
-9.25217
-12.006
-12.4821
-18.1661
-12.1154
-9.38822
-9.231
-14.6981
-10.7953
-10.6465
-42.6121
-25.601
-8.54328
-28.8463
-40.1562
-46.9911
-9.66532
-8.51191
-4.51285
-4.63529
-1.71547
-6.92083
-21.6435
-11.5162
-10.8935
-6.83075
-4.78224
-2.13319
-6.4689
-11.2149
-10.692
-5.42594
-5.11579
-6.57251
-14.7541
-14.084
-9.48542
-2.76164
-5.20651
-6.15822
-1.77148
-16.6864
-10.9145
-14.3914
-49.0952
-34.7597
-20.3293
-21.0353
-22.3214
-15.6353
-16.615
-18.3063
-11.2371
-13.0872
-14.0986
-11.7191
-16.7895
-14.1991
16.4181
15.947
17.1054
19.2552
18.3151
18.6574
17.3663
18.1687
19.1072
19.3906
18.6917
18.4905
18.6944
18.7291
19.4495
18.4238
18.17
18.704
13.7102
11.6749
12.243
9.79344
11.3907
13.7667
8.90225
10.7452
9.14202
18.4579
16.3907
16.5034
14.0682
15.9009
15.4224
20.6251
20.4487
19.3984
19.4965
19.9294
19.4575
19.1291
18.9534
18.7725
19.5353
19.1929
19.1958
19.3671
18.6814
17.8575
19.1791
18.8685
19.3327
3.47563
2.28612
4.68749
-2.02624
1.26937
2.42774
0.71146
1.06893
-1.96272
18.2574
24.0008
21.8003
17.1512
22.4181
16.6385
19.0868
20.8703
19.4876
15.3571
16.0836
14.0005
18.7225
16.8527
16.178
-6.58319
-4.72812
-5.84388
-8.36532
-6.22641
-2.87456
-6.34737
-6.7734
-9.64253
-28.8945
-26.2519
-119.541
-90.1158
-78.5639
-0.12081
-99.2115
-79.4676
-105.401
-68.7574
-76.9806
-94.5864
-14.5834
-25.6731
-13.3745
10.101
12.2628
14.8662
7.10631
10.9886
9.1201
8.64227
7.3211
4.75565
-10.3247
-8.60994
-7.10096
-10.0931
-8.98988
-10.608
-10.9241
-12.6089
-13.9415
-97.2573
-35.3787
-10.0407
-38.6453
-37.5547
-94.8828
-3.28023
-9.5925
-1.9958
-94.7797
-13.1391
-14.2813
-0.0524067
-0.40861
5.28418
-9.19718
-2.41212
-1.7075
-1.86633
-0.876595
-4.31272
-13.2602
-11.301
-10.3915
-12.0025
-11.5078
-13.6526
-14.1968
-16.6848
-18.311
-21.2523
-20.7187
-31.6453
-52.4194
-47.0006
-40.4816
-45.963
-48.4229
-54.6854
-52.9621
-42.0653
-45.5281
-13.5703
-19.5999
-11.7639
-25.3823
-21.6975
-14.955
-14.1087
-9.62902
-11.7565
-14.173
-11.9989
-12.0124
-15.8127
-19.8159
-35.7944
-14.8543
-17.7642
-15.494
-32.582
-38.7004
-34.3751
-39.1252
-39.2344
-32.313
-32.2305
-23.0353
-17.3517
-31.0203
-24.7719
-32.1727
-20.5264
-25.3765
-25.8268
-23.2206
-26.1913
-20.3362
-33.5202
-27.3511
-22.5768
-10.1779
-10.9519
-14.4445
-8.08197
-9.84706
-8.68657
-8.644
-8.2417
-5.14064
-5.38687
-40.4741
-29.5609
-25.2637
-36.767
-9.46869
-1.96242
-4.01588
-7.20114
-7.00429
-10.3778
-21.6148
-7.60225
-8.1229
-2.02459
-7.74746
-4.93647
-5.34946
-10.2457
-5.64318
-7.46818
-17.5437
-15.6081
-19.4114
-9.5944
-14.3655
-16.5216
-20.0984
-20.2468
-18.0444
-20.0727
-20.6421
-20.6517
-14.605
-13.416
-11.0053
-17.1462
-14.3397
-15.3637
-6.42426
-7.27601
-3.797
-10.1872
-8.12539
-6.88966
-10.2671
-8.62746
-10.5207
-4.6483
-5.0592
-3.3082
-6.77321
-6.27351
-9.31106
-22.706
-23.4841
-18.6161
-18.9179
-20.5017
-19.986
-14.5585
-16.0344
-14.9512
18.8736
18.6273
18.3502
19.6853
19.9029
19.9445
19.0247
19.1961
19.1154
7.15749
6.21953
5.6939
19.7146
21.2239
21.4375
9.56487
-27.4942
-0.581369
10.072
8.76745
9.57811
-9.08712
-9.74431
-9.48131
-22.1228
-25.0286
-68.6173
-71.6457
-76.886
3.83761
2.56273
2.41459
-13.0014
-13.4356
-12.8843
-21.4942
-24.6273
-28.8169
-36.8082
-40.9789
-7.1282
-8.56383
-9.45337
-16.2024
-16.1221
-16.0263
-39.9797
-45.0222
-58.5599
-23.0018
-24.1088
-30.9967
-45.3325
-40.8503
-25.977
-28.5445
-27.5195
-35.6631
-41.9195
-11.2111
-10.1953
-4.4522
-7.71507
-9.51466
-17.8975
-23.2316
-23.84
-20.698
-20.926
-20.9253
-17.0172
-17.1849
-17.8191
14.5566
15.4516
15.9553
19.4498
19.2055
19.2658
17.9227
18.2455
18.4936
19.1559
19.0025
18.8998
19.2987
19.3053
19.5135
18.63
18.1187
17.9181
17.9895
17.7414
17.5477
16.2674
16.5919
18.6603
19.9436
19.901
19.6368
19.1925
19.2563
19.3562
19.4315
19.2488
19.4321
8.504
6.03064
9.13646
2.57852
3.9104
-2.18712
3.74868
11.7666
15.5709
22.726
23.7722
22.5198
-9.56331
26.3367
22.2938
19.0838
19.2883
19.233
23.7944
21.4458
19.3815
-5.04083
-3.84808
-2.45312
-10.3564
-7.37483
-9.94621
-8.15491
-8.12747
-8.72298
-92.8566
-20.6946
-5.65576
-1.89272
-2.7223
2.99701
-86.6016
-99.3264
-101.309
-87.5641
-36.3196
-44.2036
6.19024
7.55488
6.59337
16.0725
12.0943
7.51462
-9.2657
-8.71665
-8.10301
-11.2482
-10.8875
-11.3518
-11.6917
-12.1769
-12.5841
-77.5501
-52.8543
-1.43598
-43.0883
-42.0008
-33.0681
-28.7045
-22.171
-26.4516
2.86036
3.23367
4.68103
-7.21044
-5.36382
-4.87991
-4.79059
-4.29379
-5.71095
-12.4684
-11.9669
-11.6056
-13.412
-13.3557
-14.3188
-14.7149
-15.4377
-15.7726
-53.7596
-50.021
-44.2361
-60.7445
-61.7821
-60.6056
-58.8622
-51.4444
-52.7548
-10.017
-11.1388
-9.13531
-20.2999
-18.5929
-17.5597
-16.5584
-14.4866
-15.0478
-11.4915
-11.9674
-13.8634
-36.5137
-20.6533
-20.6785
-40.7096
-42.4183
-46.3234
-74.7729
-39.3263
-39.9543
-47.4453
-25.645
-48.8411
-20.2083
-21.2552
-20.7627
-17.9062
-12.2964
-10.9288
-5.11904
-8.49237
-11.0506
-7.09083
-6.79462
-6.024
4.34986
-26.4539
-14.9999
-45.3867
-35.8654
-26.4814
-10.3801
-6.34986
-18.9415
-2.85207
-3.61977
-3.51753
1.72
-2.31015
-1.90114
-19.6737
-15.588
-17.0444
-19.4775
-19.0807
-19.8373
-18.8528
-18.8574
-18.1658
-19.983
-20.8024
-20.5652
-13.3359
-12.8645
-12.1839
-17.4346
-16.6719
-16.8261
-11.5136
-10.8649
-11.4606
-18.4419
-19.0295
-18.9873
-13.61
-14.1403
-13.7015
-12.1376
-12.3959
-10.9089
16.0613
15.5795
15.5158
15.2855
15.6697
16.3307
14.3377
14.9637
14.8861
19.4097
19.0113
19.1246
19.7285
19.8212
19.6172
18.9693
19.0988
18.9325
19.1235
18.969
19.0834
19.2397
19.1222
19.2708
18.8222
18.7034
18.9219
7.56996
6.80941
7.68168
4.66406
5.26718
4.21321
20.2016
15.3969
7.15099
18.8448
18.231
18.3031
-4.00112
-4.12552
-3.06229
-5.86151
-5.12565
-4.98568
-4.47922
-4.73718
-5.72105
-73.6788
-13.2586
-9.24526
-25.0534
-15.5832
-72.4185
-20.1042
-25.1366
10.7517
-45.7729
-31.1009
-44.8374
1.1
17.2823
43.6545
49.3781
33.8971
6.85165
14.826
15.9939
16.1455
-10.0576
-10.275
-10.89
-10.3629
-70.4483
-67.8834
-17.5552
-16.9689
-9.8396
-82.4573
-72.2062
-19.0544
1.01085
1.28779
-0.102401
-13.3084
-13.8912
-14.3668
-42.961
-39.0499
-45.6381
-11.0675
-9.98194
-11.3651
-18.9582
-17.3328
-17.1844
-16.8766
-17.5029
-18.9462
-16.0201
-16.2758
-17.2959
-96.3167
-140.155
-64.8648
-39.0509
-40.9122
-38.2007
-44.4833
-42.4326
-39.6795
-63.9738
-45.3343
-48.6699
-11.6461
-23.6616
-42.2182
-13.3969
-12.6133
-14.1124
-44.8031
-27.5621
-36.7947
-25.2423
-47.1293
-49.6937
-42.3717
-46.1883
-46.1817
-18.8845
-17.7035
-20.9909
-12.1026
-15.3974
-15.5157
-13.9015
-14.4899
-12.0008
-4.48374
-4.42389
-5.26691
-8.17087
-10.0672
-10.4214
-4.14741
-4.00102
-2.3383
-5.19351
-4.63883
-4.37632
-5.1653
-5.05699
-5.46011
-20.4206
-20.8482
-21.112
-15.902
-16.5414
-16.3307
18.9867
19.1127
19.3647
18.7642
18.5306
18.8047
19.1942
19.0954
19.2536
19.4842
19.2911
19.2546
12.9939
13.1663
13.8006
10.8176
11.2355
10.4974
11.9669
11.8496
11.0363
12.7914
12.2864
12.7302
8.56659
9.06475
9.95403
17.8009
17.5342
18.127
16.6414
16.9026
17.0243
17.0443
17.3422
16.522
14.5651
14.3756
13.4944
19.5423
19.8247
19.692
19.4906
19.4332
19.5987
19.1087
19.0387
18.933
19.0585
19.0095
18.9891
18.7084
18.8582
18.9015
19.1547
19.3046
19.1066
19.2773
19.0339
19.2993
19.1339
19.2631
19.0876
19.136
19.2577
19.021
19.4309
19.3665
19.3553
3.06156
3.82643
4.25965
-1.07524
-0.588332
-1.77916
1.60561
0.461981
0.0793307
1.2426
0.808018
1.77869
-1.95194
-0.930538
-0.941668
22.2769
25.6576
-10.3107
13.7713
25.9739
24.5772
12.8422
17.2387
21.0201
19.7758
19.3269
19.1057
19.3858
19.4521
19.8963
15.6854
14.8486
14.475
18.3738
18.0162
18.4774
16.7191
17.558
17.6235
16.7897
17.2281
16.3901
-2.81354
-4.19589
-4.08933
-6.87786
-7.38772
-7.18424
-7.89851
-7.6378
-6.73299
-9.04705
-8.28627
-8.82204
-92.1025
-54.7918
-49.3854
-121.596
-4.14813
-3.60865
-8.29091
-5.0508
-113.41
-133.365
-177.105
-126.862
-72.801
-75.587
-99.5322
-165.604
-76.8242
-73.9553
-103.294
-102.471
-111.464
-12.0521
-16.0856
-19.057
10.6597
11.7182
11.003
13.4104
12.3933
11.4031
13.9568
13.2907
14.3281
8.7147
7.88938
6.67923
10.6511
9.13709
9.97951
7.85479
8.53983
9.61624
-9.72508
-9.29813
-10.0586
-10.9803
-10.5169
-10.12
-11.3572
-11.7718
-11.3037
-64.1096
-61.2966
-81.397
-39.2039
-45.2038
-62.4561
-19.3521
-21.0765
-26.5346
0.0839811
1.60662
1.82356
-3.28036
-3.52892
-1.66336
-1.49227
-2.89118
-3.30624
-12.6728
-12.325
-12.8591
-14.1379
-13.2282
-12.9799
-14.81
-15.1226
-14.4245
-57.6656
-51.8443
-55.8301
-59.6228
-61.6482
-59.5086
-47.1673
-50.6
-57.7324
-15.1176
-13.168
-11.829
-15.9006
-18.0557
-16.8494
-12.5998
-13.5532
-14.9051
-17.5467
-19.5422
-17.1346
-16.719
-15.7814
-14.2981
-17.0568
-16.536
-16.6174
-15.9
-16.3983
-16.2944
-39.235
-37.1066
-37.5388
-37.1609
-41.693
-40.8169
-46.4753
-42.7558
-36.2484
-26.5372
-20.7246
-21.3241
-27.4431
-26.4024
-29.7931
-49.5587
-24.5949
-27.0001
-22.0148
-22.1792
-20.97
-25.2744
-22.397
-23.3348
-23.0266
-23.052
-25.6296
-24.066
-24.9501
-23.0872
-24.3784
-24.5794
-25.3923
-19.8828
-22.6881
-22.9705
-23.6734
-26.6122
-25.2615
-10.7101
-11.9869
-11.9552
-12.4838
-12.1128
-10.7384
-15.1729
-13.1753
-13.6764
-8.05983
-8.07706
-9.21133
-8.37589
-7.15237
-7.92001
-5.83949
-5.92694
-5.55799
-25.18
-24.9013
5.36259
-24.1216
-24.5765
-20.1981
-19.1256
-26.3086
-25.0839
-42.0357
-26.8595
-31.6615
-1.96358
-2.27765
-2.68315
-5.34352
-4.1354
-6.32369
-19.6333
-16.2363
-18.1085
-8.50775
-5.6072
-5.4288
-6.28998
-6.68679
-7.49064
-4.7203
-5.51937
-4.99442
-4.89609
-5.52265
-5.15448
-8.50308
-7.70651
-6.35037
-17.0136
-17.9424
-18.3569
-17.3576
-17.8668
-16.578
-19.5133
-18.5934
-18.4821
-11.4759
-11.4782
-9.45306
-15.3546
-13.2523
-12.6187
-15.3373
-13.8876
-15.3428
-20.0321
-19.4875
-19.4817
-20.7794
-20.626
-20.4218
-14.2681
-13.5164
-13.8091
-16.1066
-15.8829
-15.0679
-6.56848
-5.64876
-5.49519
-9.42758
-9.08244
-9.89196
-7.64981
-8.3966
-8.89222
-7.60961
-7.85075
-7.1967
-9.6014
-10.3615
-10.9746
-9.2189
-9.79219
-9.06694
-10.9855
-10.4729
-9.7972
-3.21345
-2.95575
-3.60902
-6.42546
-7.45749
-7.58663
-19.548
-19.5633
-20.0182
-14.3134
-14.7015
-15.2834
19.8355
17.1447
20.5703
-3.96536
-11.6376
-17.5627
6.08392
-0.906266
-10.6623
-8.11448
-25.5512
-9.12524
-28.0062
-17.7506
-71.5498
-72.1459
-73.4223
-27.1661
-27.1408
-21.3876
-36.2858
-37.502
-39.3378
-48.5929
-46.631
-44.5342
-6.69778
-4.18057
1.85592
7.85704
10.7364
2.72121
12.9238
15.0344
11.5986
-46.5561
-52.8613
-80.4656
-11.249
-14.1866
-11.4722
-44.4186
-40.5234
-87.2576
-74.204
-39.5162
1.06171
-43.3651
-42.8685
-42.9064
-10.8348
-5.73164
-4.32844
-33.435
-32.042
-34.378
-30.0156
-20.8362
-21.7553
-31.2178
-29.654
-36.9065
-48.4957
-47.8541
-44.9724
-71.5354
-69.616
-63.8137
-31.9013
-42.9465
-40.0273
-16.5422
-17.0466
-13.852
-8.94994
-9.30196
-11.8997
0.576292
7.99228
1.39147
-6.77027
-10.0524
-2.56282
-75.8876
-14.5091
-12.9898
-56.7379
-43.7086
-69.5575
-16.0676
-16.7084
13.5459
-35.8436
-28.6571
-22.3326
13.0379
37.0624
67.7347
7.40426
27.7838
18.0319
76.2099
65.6813
-68.9319
-27.3772
-21.1117
-27.1093
-14.8952
-18.0904
-9.71686
-94.4307
-88.872
-92.0008
-48.0211
-23.6122
-21.7666
-48.3871
-47.0333
-49.0564
-39.4786
-38.9228
-38.2073
-16.3942
-15.9932
-11.149
-68.8596
-45.4374
-59.7545
-27.0591
-27.1226
-28.233
2.46233
-3.7792
-5.7993
19.8584
21.198
19.9559
-118.72
-93.5334
-86.1304
-80.7554
-84.7098
-84.8594
1.14842
-3.41447
-5.92414
-124.693
-181.417
-160.954
-153.818
-180.016
-138.711
-69.8825
-71.1704
-70.1283
-13.084
-14.6358
-15.1362
-30.2242
-46.1354
-51.19
-4.49023
-40.687
-21.3202
3.85614
-1.58935
-9.23195
-93.7033
-22.5617
-85.428
-11.3088
-18.4246
-17.5998
-64.2181
-60.8212
-50.0135
-48.1052
-57.9368
-55.7343
-56.694
-67.6735
-66.7239
-50.9481
-52.6197
-54.8426
-36.5884
-36.093
-32.6374
-38.1982
-39.3342
-39.1488
-32.1395
-35.9314
-38.5231
-31.8971
-33.2592
-33.6893
-42.4686
-21.4132
-39.3172
-15.2728
-23.5828
-29.7149
7.13285
6.20053
8.52171
-30.2309
3.98751
5.39533
1.66053
2.45629
0.608403
-69.1726
-70.572
-70.2279
-72.1733
-71.4464
-70.4269
-39.9982
-38.6857
-40.281
-41.6242
-45.9963
-42.0233
-49.5528
-46.8334
-41.7554
-8.10696
-8.01783
-9.19987
26.3948
26.3506
26.0892
-0.0471343
-2.86271
27.3987
-42.8491
-21.0611
-26.4296
-1.96565
0.225106
0.783673
-93.032
-90.7971
-82.9963
-100.362
-95.9949
-95.4792
-92.1225
-62.4515
-75.3366
-37.5349
-48.5895
-64.5673
-40.7718
-40.5786
-36.9619
-27.3861
-29.5663
-30.845
-52.8287
-50.4761
-51.3509
-61.3696
-66.3645
-67.084
-65.8591
-65.8006
-61.5924
-61.9587
-68.4927
-68.8646
-41.6797
-46.4055
-45.2615
-48.2954
-47.9991
-46.8898
-22.8148
-48.7175
-28.3228
-47.892
-48.3732
-49.0088
6.19744
0.903016
0.655878
-27.7218
-0.402799
-26.1056
-10.4861
-6.94667
-12.0137
15.9058
11.2768
11.9025
-19.7136
-16.7193
-74.8346
-11.5128
-14.4266
-16.8832
-11.6784
-12.7288
-10.2586
-21.9675
-31.2322
-37.4805
-20.3288
-25.1504
-18.5408
-71.0071
-31.9635
-24.2689
-21.3874
-18.82
-17.875
-21.7665
-20.4745
-23.2996
11.9272
10.376
8.70045
-39.6276
-45.5787
-54.0679
23.444
52.797
27.6333
-69.228
-19.8194
-17.2656
-22.5585
-22.7248
-68.2213
-15.8765
-15.8553
-17.4292
-18.3306
-76.9839
-73.1086
-20.1588
-81.8416
-18.5966
-42.4023
-44.8257
-45.6936
-40.9553
-39.6184
-40.1544
-40.1144
-39.8509
-42.9211
-39.8471
-38.3263
-39.9574
-47.8297
-48.7507
-26.0373
-48.1671
-48.7988
-47.6355
-27.5982
-49.7306
-49.2768
-44.7629
-44.7374
-46.5124
-10.668
22.6919
24.1269
23.0129
23.7589
21.4588
-78.0195
-88.8947
-107.734
-112.799
-111.297
-117.469
-3.80809
-4.69062
-4.80158
-64.739
-77.5406
-3.81243
-7.33993
-9.16303
-10.4502
-6.14376
-7.73461
-6.19311
-97.5709
-88.9351
-99.7389
-104.585
-124.393
-141.357
-74.4673
-73.7571
-74.894
-71.1746
-72.3187
-73.3138
-76.3123
-77.1175
-80.8854
-76.0518
-77.1529
-77.8709
-105.072
-105.403
-102.701
-105.084
-107.463
-107.076
-13.6548
-14.1514
-12.4317
-70.0545
-73.1919
-60.4866
-89.838
-87.5882
-81.0898
-44.1347
-63.7724
-61.802
-19.728
-21.3601
-20.6366
-65.7618
-23.6666
-25.3527
-58.0205
-58.4598
-55.1771
-68.5586
-68.1539
-58.3653
-56.4491
-54.0701
-55.2892
-38.8154
-39.3095
-39.5539
-38.2736
-38.6698
-37.8036
-41.9367
-40.9802
-40.5357
-45.3231
-32.5232
-31.3506
-42.9744
-44.1385
-44.0364
-35.0651
-34.6395
-42.8129
-28.3553
-26.2625
-21.0241
-30.2702
-29.3874
-29.3464
-24.3953
-27.3033
-27.7835
-21.9371
-5.02918
-14.4736
-24.7705
-23.5567
-23.249
3.58288
4.82056
7.86255
-24.0275
-22.7136
-23.0666
-19.8854
-20.994
-21.2263
-28.6621
-28.4877
-29.2772
-33.8066
-39.7187
-45.8628
-36.9747
-23.5805
-21.0622
-52.6474
-45.8254
-64.495
93.3702
103.538
-71.0253
-66.2674
-78.8326
-59.6426
-79.3414
-73.9587
-83.3482
-56.0087
-49.2535
-47.4738
-68.8553
-49.8886
-63.5839
-54.0042
-40.8845
-36.7529
3.26931
-0.405052
-0.930207
-70.0157
93.2001
69.6794
-68.5804
-63.3804
-57.1416
37.4286
25.6363
3.02723
-42.8352
-45.9102
-48.0152
14.666
15.3835
15.2683
14.5306
15.1834
15.3565
13.9997
14.5193
14.9042
13.2046
13.5098
14.0671
8.53632
8.1969
7.27169
10.4784
10.3896
9.23945
12.6079
12.9124
11.6391
14.5022
15.7151
14.0329
15.76
17.0776
16.1537
16.1691
17.2772
17.2229
15.8981
16.7441
17.203
15.078
15.6675
16.1628
13.8644
14.2257
14.9742
12.5149
12.6348
13.4147
5.86519
5.07749
4.4581
8.00927
6.89187
5.44209
10.5618
9.90366
7.18896
14.8861
15.1709
14.3761
17.0633
17.5927
17.1219
17.8226
18.3331
18.2891
17.5082
17.9232
18.0781
16.6386
17.0003
17.2858
14.2777
14.563
16.6276
12.4193
12.4072
14.2728
10.9775
10.737
11.665
4.06417
2.82859
2.49301
6.61289
3.80228
2.90635
7.97279
6.96642
5.91681
11.7009
11.0523
9.29646
14.9943
15.018
14.4307
18.2838
18.4896
18.6214
15.8869
16.244
17.3166
12.2534
11.6574
14.196
10.3464
9.76476
10.8238
1.39464
-0.249
-0.0876369
4.33085
2.00258
1.46903
14.9871
12.3165
9.42941
22.0426
22.6666
18.3462
20.9823
20.6705
21.6313
19.4145
19.0612
17.4458
20.0595
20.4678
20.4465
17.8839
18.0671
18.6601
12.8617
12.4498
13.6386
8.94892
7.84197
8.8366
-1.77625
-4.41449
-2.92569
-2.17062
-3.39378
-2.98514
-2.85985
-3.80749
-3.56691
-5.02338
-16.1376
-9.47418
7.40839
5.13923
4.1227
-0.259721
-2.45128
-7.20979
17.2819
13.8229
5.79848
26.3232
32.2183
40.4263
17.5531
17.2058
18.5141
11.1315
10.5738
11.1275
6.41811
4.68575
4.44841
-5.23331
-7.30884
-5.39234
-6.70737
-7.61882
-6.75008
-23.0257
-19.6204
-16.171
-79.9666
-57.799
-48.07
-42.0479
-33.2359
-42.0401
-12.0128
-16.979
-21.1546
-7.9712
-12.1554
-11.2886
5.54431
-0.665358
-1.9227
2.71494
0.648817
-1.29781
-5.2474
-5.90679
-5.05976
-7.82612
-8.93561
-6.97276
-9.71375
-10.2405
-9.18157
-17.1292
-20.7988
-20.2406
-18.2707
-18.9633
-18.6924
-24.4878
-22.9965
-21.8529
-24.3285
-24.3114
-23.2152
-36.9567
-42.0903
-31.8123
-13.094
-22.0912
-32.6883
-1.34208
-3.07137
-5.99098
-6.39442
-6.76661
-5.94292
-9.10938
-9.12933
-7.73338
-11.065
-11.0437
-10.0442
-60.4423
-123.708
-49.4955
-24.7939
-25.8383
-27.8656
-20.9379
-17.4206
-17.7564
-30.0633
-27.6133
-25.6473
-61.8547
-63.2709
-73.221
-36.182
-35.041
-39.5979
-15.5831
-15.9241
-18.2295
-4.22758
-4.82083
-6.65884
-7.01407
-7.21239
-6.47414
-8.84221
-8.79064
-7.9749
-10.2541
-9.91028
-9.51576
-13.1044
-12.1657
-11.8822
-27.1968
-18.7582
-16.3394
-36.8101
-23.4254
-16.8078
-46.2897
-45.8526
-44.5565
-6.23826
-4.06871
-3.17785
-9.0343
-1.61102
-7.00928
-16.1129
-4.11972
1.89948
-22.0297
-18.5504
-18.6554
-8.86966
-6.37512
-6.28087
-5.04134
-5.10444
-5.43793
-7.3977
-7.6132
-6.885
-8.83202
-9.0644
-8.34423
-9.31171
-10.5603
-9.67286
-8.34724
-8.77167
-9.373
-4.96289
-5.09244
-5.93128
-10.3155
-10.1605
-8.30411
-24.4666
-20.9819
-20.4403
-12.546
-13.9044
-16.9026
-6.3355
-7.12057
-8.06661
-3.09464
-4.00007
-4.34541
-1.58132
-4.89932
-4.65518
-5.35756
-11.1979
-16.8749
-5.52444
-6.70536
-8.12892
-10.9301
-13.2385
-11.4892
-13.1069
-31.6373
-15.536
-13.073
-22.2841
-20.7459
-16.0356
-18.8629
-17.785
-12.0507
-12.6477
-13.1049
-10.3155
-12.4496
-12.1405
-19.5742
-29.1187
-19.1308
-14.0944
-19.1903
-34.123
-14.789
-15.9634
-12.9988
-36.2574
-28.7191
-18.4025
-56.6446
-37.9979
-31.8861
-31.0371
-25.2177
-37.2871
-21.0147
-21.1407
-23.8315
-16.7646
-18.0843
-20.4181
-14.7145
-15.2259
-17.3036
-16.6965
-13.2537
-14.6613
-25.8435
-11.7822
-12.8799
-24.599
-19.2931
-16.1926
-29.8469
-19.1965
-19.9826
-22.3138
-19.6347
-18.08
-20.9994
-22.6309
-20.4892
-18.4657
-20.1597
-22.4979
-15.1552
-14.9559
-18.9892
-11.8742
-8.956
-13.5117
-7.99935
-2.11754
-7.28905
-18.7196
-18.5874
-15.2742
-19.0334
-23.4314
-19.6837
-20.96
-29.5534
-25.0484
-24.1429
-30.9703
-30.5733
-21.0455
-24.6751
-30.0195
-15.0002
-15.6204
-22.4222
-8.43799
-7.98613
-13.5197
-1.85345
-2.31061
-6.36167
-18.7788
-18.7945
-13.8657
-25.5574
-31.1498
-21.1393
-33.1098
-43.3959
-34.9504
-33.4783
-37.8442
-43.7929
-25.9582
-28.0139
-35.36
-15.9324
-16.601
-25.1798
-8.10343
-8.78473
-14.1701
-3.06844
-5.42053
-7.57773
-18.3095
-14.611
-10.1219
-32.0035
-28.3059
-17.0944