/*--------------------------------*- C++ -*----------------------------------*\
| =========                 |                                                 |
| \\      /  F ield         | OpenFOAM: The Open Source CFD Toolbox           |
|  \\    /   O peration     | Version:  5.x                                   |
|   \\  /    A nd           | Web:      www.OpenFOAM.org                      |
|    \\/     M anipulation  |                                                 |
\*---------------------------------------------------------------------------*/
FoamFile
{
    version     2.0;
    format      ascii;
    class       surfaceScalarField;
    location    "1";
    object      phi;
}
// * * * * * * * * * * * * * * * * * * * * * * * * * * * * * * * * * * * * * //

dimensions      [0 3 -1 0 0 0 0];

internalField   nonuniform List<scalar> 
20773
(
-0.00013356
0.0401417
-0.000164902
0.0401101
-0.000207462
0.0401078
-0.000239574
0.0400813
-0.000268854
0.0400601
-0.000289145
0.0400315
-0.00029783
0.0399995
-0.000289909
0.0399625
-0.000262843
0.0399229
-0.00021451
0.0398849
-0.000146963
0.0398523
-6.66446e-05
0.0398323
1.66975e-05
0.0398292
9.40226e-05
0.0398425
0.00015642
0.0398708
0.000200368
0.0399061
0.000227116
0.0399437
0.000236592
0.0399813
0.000232454
0.0400153
0.000216033
0.0400472
0.000192563
0.0400727
0.000156491
0.0401013
0.000127986
0.0401073
0.0401394
-0.000430193
0.0402923
-0.000564032
0.040244
-0.00070093
0.0402447
-0.000825262
0.0402056
-0.000939442
0.0401743
-0.00103216
0.0401242
-0.00108989
0.0400572
-0.0010985
0.0399711
-0.00104152
0.039866
-0.000909701
0.039753
-0.000704591
0.0396472
-0.000443632
0.0395713
-0.00015877
0.0395444
0.000113515
0.0395702
0.000345977
0.0396383
0.000518692
0.0397333
0.000630206
0.0398321
0.000684088
0.0399274
0.000687465
0.040012
0.00065009
0.0400846
0.000582405
0.0401404
0.000487309
0.0401964
0.000379971
0.0402146
0.040272
-0.000742043
0.040539
-0.00098625
0.0404882
-0.00123163
0.04049
-0.00146817
0.0404422
-0.00169598
0.0404021
-0.0018961
0.0403243
-0.00204563
0.0402067
-0.0021153
0.0400408
-0.00207195
0.0398226
-0.00188777
0.0395689
-0.00155989
0.0393193
-0.00111116
0.0391226
-0.000600444
0.0390337
-9.8064e-05
0.0390678
0.000340287
0.0392
0.000676018
0.0393976
0.000904375
0.0396038
0.00102752
0.0398043
0.00106191
0.0399776
0.00102035
0.0401262
0.000924783
0.0402359
0.000781533
0.0403396
0.000610456
0.0403857
0.0404727
-0.00103412
0.0408754
-0.00136934
0.0408234
-0.00171722
0.0408379
-0.00206874
0.0407937
-0.00241937
0.0407527
-0.00274655
0.0406515
-0.00302143
0.0404816
-0.00319173
0.040211
-0.00320158
0.0398325
-0.00299313
0.0393604
-0.00254746
0.0388736
-0.00189436
0.0384695
-0.00113245
0.0382717
-0.000378843
0.0383142
0.000276104
0.038545
0.000779517
0.0388942
0.00112471
0.0392586
0.00131584
0.0396132
0.00138243
0.039911
0.00134109
0.0401675
0.00122201
0.040355
0.00104035
0.0405213
0.000826007
0.0406001
0.0407375
-0.00128036
0.0412758
-0.00169731
0.0412403
-0.0021361
0.0412767
-0.0025969
0.0412545
-0.00307817
0.041234
-0.00356106
0.0411344
-0.00398935
0.0205043
0.0204056
-0.00430465
0.0203157
0.0202106
-0.00440627
0.0200335
0.0199006
-0.0041864
0.0196488
0.0194918
-0.00359443
0.0192183
0.0190633
-0.00265853
0.0188056
0.018728
-0.0015594
0.0185897
0.0185829
-0.000492436
0.0185956
0.0186516
0.000409145
0.0187682
0.0188753
0.00107009
0.0190421
0.0191911
0.0015064
0.0193488
0.0194734
0.00173044
0.019642
0.0197472
0.00178176
0.0398597
0.00171224
0.040237
0.00155183
0.0405154
0.0013204
0.0407527
0.00104965
0.0408708
0.0410593
-0.00150812
0.0417287
-0.00199675
0.041729
-0.00252123
0.0418012
-0.00309239
0.0418257
-0.0037346
0.0418762
-0.0021193
0.0209236
-0.00225876
0.0208543
-0.00222084
0.0206058
-0.00248124
0.020447
0.00234995
0.00257284
-0.00266545
0.0201261
0.00267938
-0.00267905
0.0196485
0.00257675
-0.0024407
0.0190823
0.00220303
-0.0019485
0.0185511
-0.00126556
0.0182479
0.0016074
0.000903411
-0.000552125
0.0182443
0.000226757
6.84917e-05
0.0184729
-0.000320461
0.000537977
0.0188246
-0.000716517
0.00085892
0.0192064
-0.000955512
0.00104715
0.0195503
0.0023938
0.0198443
-0.00112218
-0.00125001
0.0199938
0.00223541
0.0403954
0.0019892
0.0407616
0.00167869
0.0410632
0.00133114
0.0412184
0.041451
-0.00173558
0.0422306
-0.00228585
0.0422792
-0.00289493
0.0424103
-0.00358423
0.042515
-0.00213947
0.0426679
-0.00223652
-0.00228713
0.0210712
-0.00269214
0.0210171
-0.0208042
0.0024792
-0.0031138
0.0208288
-0.0206208
0.00290579
0.00330746
-0.00346909
0.0204156
-0.020254
0.00357447
-0.00359427
0.0196809
-0.0196611
0.00350525
-0.00332328
-0.018926
0.00942761
0.00931638
0.00299508
-0.00256377
-0.0182249
0.00893258
0.00886104
-0.0178208
0.00204038
-0.00149148
0.00864169
0.00863021
-0.0178251
0.000937718
-0.00043457
0.00864242
0.00867957
-0.0181259
-1.84304e-05
0.000414986
0.0177293
-0.0185772
-0.000746926
0.00100181
0.0183224
-0.00119997
0.00133998
0.01891
-0.01905
-0.00143679
0.00149427
0.0194126
-0.0194701
-0.0015202
0.00152518
0.0198393
0.00292441
0.0406796
-0.001535
-0.00167362
0.00254767
0.0411384
0.00212575
0.0414851
0.00168253
0.0416616
0.0419306
-0.00193975
0.0427659
-0.00254364
0.0428831
-0.00322786
0.0430945
-0.00402877
0.0433159
-0.00246098
0.0436102
-0.00251006
-0.00267451
0.0215322
-0.0213187
-0.00324325
0.0215585
-0.021263
0.00294779
-0.0105663
0.00174042
-0.00180184
0.0106277
-0.0103715
0.00203538
-0.0021115
0.0104476
-0.00993299
0.00230764
-0.00235504
0.00998039
0.00235857
-0.00932699
-0.00230794
0.00927637
0.00201206
-0.00870004
-0.00186639
0.00855436
0.00127206
-0.00831013
-0.00106742
0.00810549
0.0004536
-0.00832681
-0.000273027
0.00814623
-0.000214821
-0.0085786
0.000337889
0.00845553
-0.000650221
-0.00897683
0.000731797
0.00889525
-0.00935461
-0.000893587
0.000936081
0.00931212
-0.00102004
0.00214518
0.0193435
-0.0193712
-0.00109748
-0.00211729
0.00206557
0.0199111
-0.0198594
0.00371148
0.0411918
-0.00203201
-0.00219168
0.00317074
0.0416791
0.00261924
0.0420366
0.00206683
0.042214
0.0424983
-0.00208459
0.043309
-0.00271669
0.0435152
-0.00344958
0.0438274
-0.00434284
0.0442091
-0.00272244
0.0447168
-0.00272698
-0.021863
-0.00300182
0.0221424
-0.0219095
-0.00376719
0.0223168
0.00335997
-0.0109176
0.00209385
-0.00220409
0.0110279
-0.00540853
0.00129457
-0.001332
0.00544596
-0.00512045
0.00160359
-0.00162567
0.00514254
-0.00459301
0.00174002
-0.00176471
0.0046177
-0.00396838
0.000495133
0.000413071
-0.00379258
0.00382811
0.00376477
-0.00365344
0.000335544
-9.31126e-05
-0.000290109
-0.00398343
0.000313246
0.00396029
-0.00058106
-0.00428576
0.000606758
0.00426006
-0.00069582
-0.00458853
0.000701857
0.0045825
-0.0193761
-0.00147541
0.00294439
0.0194708
-0.00156368
-0.00281682
-0.020019
0.0026696
0.0201663
0.00449932
0.0419591
-0.00256011
-0.00270652
0.00378026
0.0423982
0.00309699
0.0427199
0.00244303
0.042868
0.0431408
-0.00213324
0.0438213
-0.00275255
0.0441345
-0.00348402
0.0445589
-0.00439983
0.0451249
-0.00282756
0.0458841
-0.00273963
-0.0225195
-0.0031551
0.022847
-0.0227689
-0.00404487
0.0232472
0.00356661
-0.0114708
0.00230565
-0.00245275
0.0116179
-0.00579441
0.00149768
-0.00154803
0.00584475
-0.00558594
0.00214318
-0.00127891
0.00472167
-0.000845294
-0.00348217
0.0034364
0.000891072
-0.00155829
-0.00367741
0.00379373
0.00144196
-0.0029964
-0.00509842
0.00530362
0.0027912
-0.00563891
-0.00615942
0.00623025
0.00556807
-0.00794967
-0.00672084
0.00681232
0.00785819
-0.000939875
-0.00413796
0.000977105
0.00410073
-0.00100543
-0.0045667
0.00101038
0.00456175
-0.00198372
-0.0196389
0.00379447
0.0198957
-0.00206755
-0.00352479
-0.020378
0.00326073
0.0206421
0.00519651
0.042987
-0.00306031
-0.00316406
0.00431019
0.0432845
0.00351403
0.043516
0.00277862
0.0436034
0.0438311
-0.00207944
0.0442653
-0.00263101
0.0446861
-0.00329415
0.045222
-0.00413696
0.0459677
-0.00271701
0.0469708
-0.0025066
-0.0232354
-0.00303507
0.0235535
-0.0237532
0.024228
0.00344547
-0.00191372
-0.00200648
-0.0120893
0.0022412
-0.00240057
0.0122486
-0.00630786
0.00146059
-0.00157854
0.00642581
-0.000594796
-0.0017915
0.00161232
0.000773975
-0.00169682
0.00120369
-0.001418
0.000998619
0.000912518
-0.000448514
0.000228395
-0.00023617
0.00045629
-0.000186055
0.00031489
0.00024683
-0.000375666
-0.00525594
-0.0046524
0.00478448
0.00512386
-0.00746978
-0.00501166
0.00517124
0.0073102
-0.0106167
-0.00563513
0.00571455
0.0105373
-0.00144083
-0.00464555
0.00141191
0.00467447
-0.00248439
-0.01006
0.00237574
0.0101686
-0.00417164
-0.0209824
0.00376783
0.0213862
0.00573933
0.0441973
-0.00346547
-0.00348417
0.00472556
0.0442983
0.00385034
0.0443913
0.00306791
0.0443858
0.0445417
-0.00192925
0.0446012
-0.00237207
0.0451289
-0.00290725
0.0457572
-0.0035852
0.0466457
-0.00237887
0.0478391
-0.00207466
-0.0239091
-0.0026336
0.0241638
-0.0246725
0.025061
0.00296566
-0.00161546
-0.00173869
-0.0127034
0.00196315
-0.00211428
0.0128545
-0.00338224
0.000943273
0.00210323
-0.00132383
-0.000752422
0.00084434
0.00123191
-0.00259658
-0.00410177
0.00524396
0.00414809
-0.0026937
0.00456726
-0.00604676
0.00493061
-0.00345111
-0.000180786
-0.00197414
0.00183599
0.000318943
-0.00374927
-0.000841362
0.00057373
0.0040169
1.59771e-06
-6.95494e-05
6.79517e-05
-0.0113232
-0.00490598
0.00478332
0.0114458
-0.00481932
-0.00179249
0.00195096
0.00466084
-0.0029722
-0.010679
0.00276017
0.010891
-0.00457958
-0.0218544
0.00409022
0.0223437
0.0060767
0.0455174
-0.00373395
-0.00366286
0.00500297
0.045372
0.00409969
0.0452945
0.00330226
0.0451832
0.0452382
-0.00171067
0.0448053
-0.00202264
0.0454409
-0.00238742
0.046122
-0.00284637
0.0471046
-0.00187588
0.0484047
-0.00153609
-0.00204021
0.0246021
-0.0244378
-0.0253814
0.00226333
0.0256494
-0.00119803
-0.00133332
-0.0131001
0.0015173
-0.0016556
0.0132384
0.000578714
-0.00119066
-0.000552565
0.00146824
-0.000630174
-0.00146783
0.000629769
-0.000584741
0.00056233
-0.000322792
0.000345204
-0.000631605
0.000364362
0.000600374
-0.000333132
-0.0051638
-0.000468577
0.000438015
0.00519436
-4.30733e-05
0.000189604
-0.000106537
-3.99937e-05
-0.0117737
-0.00266871
0.00288729
0.0115551
-0.0029728
0.00217785
0.00305049
-0.00299163
-0.0115208
0.00276893
0.0117435
-0.00455319
-0.0228401
0.0041051
0.0232882
0.00615283
0.0467471
-0.00377317
-0.00360934
0.00512332
0.0464015
0.00425015
0.0461677
0.00347967
0.0459537
0.0458925
-0.0014471
0.0448778
-0.00161861
0.0456124
-0.00180291
0.0463063
-0.00203722
0.047339
-0.00129791
0.0486504
-0.000984991
-0.0247644
-0.00136175
0.0248282
-0.0258233
0.00143892
0.0258862
-0.000679542
-0.00082226
-0.0135225
0.000854012
-0.000871407
0.0135398
-0.00387036
0.00122609
0.00515075
0.00449057
-0.00234875
-0.0051797
0.00303789
0.000720145
0.0024798
-0.00234813
-0.000851819
0.00339498
0.0015394
-0.00302801
-0.00190637
0.00159596
-0.000246999
-0.00154618
0.000197215
-0.00440312
0.00130519
-0.00119916
0.00429709
0.00178873
0.000432529
-0.000442141
-0.00177911
-0.0108634
0.00184447
-0.00180677
0.0108257
-0.0064908
-0.00202719
0.00169583
0.00682215
-0.00232092
-0.0122334
0.00226925
0.0122851
-0.00411338
-0.0236518
0.00385708
0.0239081
0.00602668
0.0477995
-0.00362271
-0.00345636
0.00509392
0.0473343
0.00429331
0.0469683
0.00358341
0.0466636
0.0464767
-0.00115252
0.0448378
-0.00118181
0.0456417
-0.00120234
0.0463268
-0.00126296
0.0473996
-0.000776469
0.0486851
-0.000521213
-0.0248815
-0.000763246
0.0248683
-0.0258668
0.000733829
-0.000613266
0.0257463
-0.0134043
0.000251067
-0.000176637
0.0133299
-0.00727587
-0.000223274
0.000390828
0.00710832
0.00191809
-0.00254639
-0.00108665
0.00171495
0.00378619
-0.000219286
-0.000411107
-0.0031558
-8.20719e-05
-0.000249997
0.000230571
0.000101498
0.00118079
0.000188202
-0.00120528
-0.000163708
0.00303615
-0.0042176
-0.00300169
0.00418313
-0.000467471
0.00268623
-0.00355576
0.001337
-0.00921928
0.00548729
-0.00528932
0.00902131
-0.00651952
0.000313835
-8.4576e-05
0.00629026
-0.00171368
-0.0120296
0.00387427
0.023719
-0.00175711
-0.0120929
-0.00388458
-0.0240927
0.00369119
0.0242861
0.00579363
0.0488339
-0.00346332
-0.00336473
0.00493642
0.0481915
0.00422951
0.0476752
0.00360869
0.0472844
0.0469745
-0.000813405
0.0446907
-0.000722895
0.0455512
-0.000606978
0.0462109
-0.000526645
0.0473192
-0.000323927
0.048599
-0.000116554
-0.0248661
-0.000313531
0.0248557
-0.0256683
0.000297146
-0.000273758
0.025645
-0.0130867
0.000107044
-6.438e-05
0.013044
-0.00649366
-0.000149113
0.000203765
0.00643901
-0.00541949
-0.000870101
0.000931548
0.00535804
0.00624884
0.00123423
-0.00627773
-0.00120533
0.00113569
0.00726759
-0.00740886
-0.000994422
-0.00132392
0.00715525
-0.00712971
0.00129839
0.00670019
-0.0035115
-0.00655525
0.00336656
-0.00486311
0.00612179
-0.00613249
0.00487381
-0.00253606
-0.000215356
0.000217936
0.00253348
-0.00421002
-0.000561276
0.000701876
0.00406942
-0.0237209
-0.0028015
0.00518173
0.0244848
-0.00314414
-0.00433394
-0.0246491
0.00370221
0.0252808
0.00535411
0.0498512
-0.00326012
-0.00311125
0.00463142
0.0489142
0.00405349
0.0482532
0.00354757
0.0477903
0.0473719
-0.000459641
0.0444614
-0.000237627
0.0453292
-1.22891e-05
0.0459855
0.000237158
0.0470698
0.00013306
0.0483614
0.000341649
-0.0248428
0.000130152
0.0248458
-0.025694
-0.000117077
3.92075e-05
0.0257718
-0.0131481
0.00010666
-0.000234048
0.0132754
-0.00640381
0.000449107
-0.000530817
0.00648552
-0.00599646
0.00181246
-0.0019337
0.0061177
-0.0026219
0.00216888
-0.00211826
0.00257127
-0.00146299
0.00112268
-0.000955534
0.00129585
0.000225388
-0.000214635
0.000667597
-0.000420914
0.000326457
-0.000328608
0.000423065
-0.000524615
0.000160872
-0.000131372
0.000495116
-0.000975397
-0.000610652
0.000808747
0.000777301
-0.00407654
-0.00230653
0.00241589
0.00396718
-0.0261019
-0.00328
0.00447706
0.0277833
-0.00287845
-0.0260278
-0.0035211
0.00301877
0.0265301
0.00456475
0.050275
-0.00269816
-0.00229044
0.00416312
0.0493158
0.00376871
0.0486476
0.00339369
0.0481654
0.0476466
-0.000104145
0.0441592
0.0002395
0.0449855
0.00061163
0.0456134
0.00103253
0.0466489
0.00065979
0.0478731
0.000861054
-0.0247832
0.000713142
0.0247299
-0.0257949
0.000937807
0.0256867
-0.000829626
-0.0136719
0.00114081
0.0273763
-0.00101818
-0.013827
-0.0157514
-0.000400967
0.000261003
0.0158914
-0.0126796
0.00095851
-0.000918948
0.0126401
-0.00381968
0.00203396
-0.00269065
0.00447637
-0.000552334
0.00244359
-0.00224922
0.000357965
-0.000871192
0.00185714
-0.0017625
0.000776546
-0.00044898
0.00145301
-0.00133344
0.000329408
-0.000390511
0.000949974
-0.000826148
0.000266685
-0.000491233
0.000973271
-0.0011652
0.000683166
-0.00761397
0.00187964
-0.00310444
0.0163829
-0.00985441
0.00231027
-0.0282051
0.00132578
6.04414e-05
0.0268188
-0.026465
-0.00107345
0.00165365
0.0258848
0.00384581
0.0500622
-0.00193031
-0.00170264
0.00369585
0.0494657
0.00345236
0.0488911
0.00319345
0.0484243
0.0478088
0.00022775
0.0437817
0.000665192
0.0445481
0.00116915
0.0451095
0.00176549
0.0460526
0.00252523
0.0471133
0.00167634
0.0484221
0.00188125
-0.0248427
-0.0246117
-0.0254559
0.00196185
0.0251704
-0.0267738
-0.00238907
0.00306449
0.0260984
-0.0141114
-0.00208421
0.00257785
0.0136178
-0.0126635
-0.00475521
0.00503736
0.0123814
-0.00744607
-0.00481649
0.00412612
0.00813644
-0.0018512
-0.000341647
-0.000558624
0.00275147
-0.000856795
0.00175917
-0.00186141
0.000959034
-3.23041e-05
0.00176261
-0.00166473
-6.55789e-05
-0.000104785
0.0014015
-0.00136418
6.74716e-05
-0.00156243
0.00149594
-0.00164388
0.00171037
0.00195636
-0.0156522
-0.00269044
0.0148223
0.00156396
-0.0249731
0.00120461
0.000211785
0.0235567
0.00360718
0.049571
-0.00105332
-0.00171922
-0.0251909
-0.0252147
0.00367107
0.0499983
0.00342857
0.0497082
0.00319385
0.0491258
0.00298301
0.0486351
0.0478911
0.000497782
0.0433449
0.00100757
0.0440383
0.00160698
0.04451
0.00233586
0.0453237
0.00322637
0.0462228
0.00213953
0.0472626
0.00224638
-0.024799
0.00245798
0.0244806
-0.0255129
-0.00284313
0.00328952
0.0250665
-0.0127904
-0.00193018
0.0020505
0.01267
-0.0118495
-0.0022219
0.00217674
0.0118946
-0.0094252
-0.00167016
0.00121682
0.00987854
-0.00502637
0.000788897
-0.00126579
0.00550326
-0.00119289
0.00198789
-0.00201038
0.00121538
0.000465199
0.00166464
-0.00148062
-0.000649227
0.000171447
0.000954124
-0.00081981
-0.000305762
-0.00175341
0.000578321
-0.000526297
0.00170139
-3.82881e-05
-0.013807
0.00145717
0.0126754
-0.00028733
-0.0228362
-0.00242548
0.00269942
0.0225622
0.00463885
0.0507213
-0.00259775
-0.00319133
0.00383367
0.0508035
0.00327128
0.0502706
0.00294718
0.0494499
0.0027277
0.0488546
0.0479095
0.000690074
0.042873
0.00124252
0.0434859
0.00189856
0.043854
0.00271652
0.0445057
0.00371891
0.0452204
0.00243001
0.0460299
0.00252157
-0.0241309
0.00272653
0.0238344
-0.0247449
-0.00303221
0.00328995
0.0244872
-0.0125272
-0.00172526
0.00171432
0.0125382
-0.0125077
-0.00136224
0.00104012
0.0128298
-0.0112406
0.00013328
-0.000484461
0.0115918
-0.00615583
0.00105758
-0.00103602
0.00613428
-0.00118249
0.000749285
-0.00072117
0.00115437
0.00126496
0.000579919
-0.00043035
-0.00141453
0.000835118
-0.000158809
0.000343878
-0.00102019
-0.001433
-0.000761269
0.000860604
0.00133366
-0.00123507
-0.011541
0.00363725
0.0105676
-0.0014288
-0.0225073
-0.0044139
0.00437191
0.0225493
0.00510116
0.0532723
-0.00370459
-0.0039476
0.00368103
0.0522236
0.00291356
0.0510381
0.00255237
0.0498111
0.00234761
0.0490594
0.0478514
0.000787866
0.0424018
0.0013616
0.0429121
0.00204206
0.0431736
0.00290507
0.0436427
0.00398701
0.0441385
0.00264451
0.0447041
0.00266834
-0.0234959
0.00300215
0.0231383
-0.0242112
-0.00339058
0.00376903
0.0238327
-0.0125563
-0.00198946
0.00200165
0.0125441
-0.0136746
-0.0018124
0.00169695
0.0137901
-0.0122356
-0.0014903
0.00148376
0.0122422
-0.00544529
-0.00190457
0.00220493
0.00514493
-0.000964552
-0.00314171
0.00318673
0.000919534
0.001314
-0.00247186
0.00224791
-0.00109004
0.00138691
-0.0020304
0.00204207
-0.00139858
-0.00115281
-0.00208664
0.00207354
0.0011659
-0.00198113
-0.0099435
0.00420334
0.0098094
-0.00208811
-0.0226643
-0.00456751
0.00433234
0.0228994
0.00382828
0.0557563
-0.00343536
-0.00287689
0.00267254
0.0533793
0.00208092
0.0516297
0.00187331
0.0500187
0.00179081
0.0491419
0.0476997
0.000808398
0.0419461
0.00135894
0.0423616
0.00202104
0.0425115
0.00286918
0.0427946
0.0039681
0.0430396
0.00271667
0.0432579
0.00269756
-0.0226792
0.0031999
0.022196
-0.0232982
-0.00377739
0.00445876
0.0226169
-0.012144
-0.00260497
0.00283095
0.011918
-0.0133168
-0.00383028
0.0042725
0.0128746
-0.0113122
-0.00583216
0.0063914
0.010753
-0.00444652
-0.00766925
0.00775701
0.00435876
-0.00156854
-0.00676617
0.00628024
0.00205447
0.000221772
-0.00530321
0.00505221
2.92263e-05
0.00102681
-0.00427809
0.00403016
-0.000778881
-0.00154258
-0.00331183
0.00305435
0.00180005
-0.00221571
-0.0102873
0.0033275
0.0113917
-0.00221619
-0.0232667
-0.00267092
0.0020949
0.0238427
0.00108086
0.056559
-0.00145333
-0.000430237
0.000850063
0.0536101
0.000822293
0.0516575
0.000914686
0.0499263
0.0010467
0.0490099
0.0474177
0.000730111
0.041544
0.00122759
0.0418641
0.0018155
0.0419235
0.00256618
0.0420439
0.00355406
0.0420517
0.00251876
0.0419034
0.00238987
-0.0217031
0.00304467
0.0211772
-0.0218402
-0.00368172
0.00447225
0.0210497
-0.0109875
-0.00275418
0.0030654
0.0106763
-0.0109963
-0.00442683
0.00505799
0.0103652
-0.00892055
-0.00706256
0.00758109
0.00840202
-0.00482642
-0.00800326
0.0077403
0.00508938
-0.00323761
-0.00673263
0.0066921
0.00327814
-0.000513145
-0.0068446
0.00674174
0.000616006
-0.000216611
-0.00591207
0.00551673
0.000611952
-0.00300759
-0.00407001
0.0035286
0.00354899
-0.00187211
-0.0130663
0.00152458
0.0151844
-0.0017705
-0.0245345
0.000122379
-0.00088229
0.0252944
-0.00170019
0.055649
0.000952771
0.00165739
-0.001089
0.0529989
-0.000548656
0.0511171
-0.000159106
0.0495367
0.00022892
0.0486218
0.0470213
0.000579588
0.0412138
0.00097446
0.0414692
0.00143273
0.0414653
0.00200249
0.0414741
0.00275997
0.0412942
0.00203172
0.0408488
0.00178281
-0.0207424
0.00247493
0.0202992
-0.020316
-0.00298926
0.00362119
0.0196841
-0.00985714
-0.00227106
0.00253044
0.00959776
-0.0089979
-0.00336502
0.00367255
0.00869037
-0.00734383
-0.00457633
0.00482175
0.00709841
-0.00530068
-0.00532364
0.00557541
0.00504891
-0.00260058
-0.00663878
0.00690345
0.00233591
-0.000918161
-0.00714682
0.00704534
0.00101965
-0.00193061
-0.00617773
0.00567617
0.00243217
-0.00550507
-0.00369008
0.00298274
0.0062124
-0.00100655
-0.017526
-0.000462684
0.0198037
-0.000808488
-0.025966
0.00221954
-0.00276771
0.0265141
-0.00364759
0.0540282
0.00248474
0.00278363
-0.00262703
0.0519784
-0.00176265
0.0502528
-0.0011323
0.0489064
-0.000626636
0.0481162
0.0464696
0.000362942
0.0409825
0.00063162
0.0412005
0.000912112
0.0411848
0.00123493
0.0411513
0.00164489
0.0408843
0.00128234
0.0402802
0.00093116
-0.0200059
0.00156565
0.0197226
-0.0191816
-0.00186647
0.00222842
0.0188196
-0.00905086
-0.00142671
0.00159059
0.00888697
-0.00799547
-0.00207036
0.00224115
0.00782467
-0.00642662
-0.00283952
0.00321348
0.00605266
-0.00377213
-0.00455107
0.00490665
0.00341656
-0.00176636
-0.00561718
0.00573189
0.00165165
-0.00147238
-0.00555802
0.00527318
0.00175722
-0.00412923
-0.00386131
0.00330075
0.00468979
-0.00812489
-0.00166389
0.00117279
0.00861599
0.000230732
-0.0218008
-0.002294
0.0233935
0.000470491
-0.0268692
0.00341184
-0.00361695
0.0270743
-0.00508289
0.0522757
0.00331439
0.00352105
-0.00382362
0.0507191
-0.00277926
0.0492084
-0.00198542
0.0481125
-0.00136985
0.0475006
0.0457862
0.00014187
0.0408459
0.000252182
0.0410902
0.000323801
0.0411132
0.000356033
0.0411191
0.000329312
0.040911
0.000327312
0.0403506
-6.83951e-05
-0.0196307
0.000406218
0.0195518
-0.01861
-0.000446694
0.000496161
0.0185605
-0.00864323
-0.000395204
0.000471331
0.00856711
-0.00738409
-0.000722332
0.000979451
0.00712697
-0.00484949
-0.00197208
0.0022427
0.00457888
-0.00270934
-0.00283248
0.00295243
0.00258939
-0.00170402
-0.0029052
0.00269886
0.00191036
-0.00286676
-0.00187276
0.00159081
0.00314872
-0.00601802
-0.000631118
0.000297084
0.00635205
-0.00964676
0.000553624
-0.000794711
0.00988785
0.00155073
-0.0245557
-0.00410259
0.0253036
0.00180392
-0.0270996
0.00443825
-0.00431287
0.0269742
-0.0064376
0.0503762
0.00401072
0.00432636
-0.0048826
0.0491641
-0.00364178
0.0479676
-0.00268068
0.0471514
-0.00193875
0.0467587
0.0449841
-5.27557e-05
0.0408061
-9.50743e-05
0.0411326
-0.000228121
0.0412462
-0.000492756
0.0413837
-0.00095895
0.0413772
-0.000675053
0.0410933
-0.00102665
-0.0196929
-0.000840812
0.0198587
-0.0186978
0.00110526
-0.00144033
0.0190329
-0.00858135
0.000751233
-0.000691066
0.00852118
-0.00634503
0.000170092
-7.53282e-06
0.00618247
-0.00414027
-0.000292951
0.000323329
0.0041099
-0.00271465
-0.000101006
-0.000147787
0.00296344
-0.00263779
0.00106466
-0.00126129
0.00283442
-0.00361073
0.0015891
-0.0016811
0.00370272
-0.00711573
0.00205524
-0.00220779
0.00726828
-0.0104194
0.00261709
-0.00272739
0.0105297
0.0030438
-0.0256525
-0.00632789
0.025577
0.00335954
-0.0266427
0.00592865
-0.00537563
0.0260896
-0.00775094
0.0480476
0.00486782
0.00521168
-0.00580725
0.0472204
-0.00430495
0.0464653
-0.00316625
0.0460127
-0.00224341
0.0458358
0.0441154
-0.000161112
0.0408346
-0.000340231
0.0413117
-0.000637683
0.0415437
-0.00113926
0.0418853
-0.00194963
0.0421875
-0.00149588
0.0423716
-0.00173202
-0.0202316
-0.00190958
0.0206453
-0.0194978
0.0024728
-0.00297389
0.0199989
-0.0083189
0.001471
-0.00140256
0.00825046
-0.00598512
0.00132019
-0.00134133
0.00600625
-0.00436078
0.00161803
-0.00180384
0.00454659
-0.00404712
0.00273272
-0.00310152
0.00441592
-0.00351024
0.00406926
-0.00436276
0.00380375
-0.00406369
0.00516506
-0.00535531
0.00425394
-0.00736605
0.00554083
-0.00549477
0.00731999
-0.0105609
0.00522355
-0.00510966
0.010447
0.00468434
-0.0250368
-0.00864831
0.0240453
0.00495554
-0.0252709
0.00753731
-0.00648925
0.0242228
-0.00867766
0.0452406
0.00565293
0.00583178
-0.00640078
0.0449435
-0.00466263
0.0447272
-0.00336857
0.0447187
-0.00228176
0.044749
0.0432251
-0.0001747
0.0409069
-0.000433807
0.0415708
-0.000822704
0.0419326
-0.00144684
0.0425094
-0.00242602
0.0431667
-0.00196219
0.0439297
-0.00202187
-0.0212036
-0.00254678
0.0217882
-0.0204917
0.0032272
-0.00372405
0.0209886
-0.00829068
0.00196084
-0.00202713
0.00835697
-0.00628118
0.00234362
-0.00249236
0.00642992
-0.00527217
0.00310033
-0.00335661
0.00552845
-0.00535687
0.00414269
-0.00438785
0.00560203
-0.00482148
0.00524447
-0.00558566
0.00516266
-0.00503213
0.00661851
-0.00690723
0.00532084
-0.00717307
0.007348
-0.00732348
0.00714855
-0.00978652
0.00681065
-0.00653134
0.00950721
0.00550445
-0.022718
-0.00954751
0.021256
0.00550507
-0.0230365
0.00814322
-0.00692755
0.0218208
-0.00884736
0.0422329
0.00594964
0.0059054
-0.0064553
0.0425515
-0.00461636
0.0428882
-0.00323181
0.0433341
-0.00203541
0.0435526
0.0424013
-7.72093e-05
0.0409749
-0.000358864
0.0418524
-0.000747863
0.0423216
-0.00135033
0.0431119
-0.00228051
0.0440969
-0.001944
0.0453985
-0.00180538
-0.0223995
-0.00254673
0.0230023
-0.0215322
0.0032194
-0.00384882
0.0221616
-0.00874072
0.00223967
-0.00241221
0.00891326
-0.00699398
0.00301336
-0.00323252
0.00721314
-0.00624328
0.00391044
-0.00412996
0.00646279
-0.0061627
0.00469791
-0.00485005
0.00631484
-0.00600598
0.00531876
-0.00551105
0.00619827
-0.00608192
0.00614161
-0.00632849
0.0062688
-0.00712763
0.00664053
-0.00663171
0.00711881
-0.00869259
0.00623648
-0.00599951
0.00845563
0.00508153
-0.0198491
-0.00876437
0.018611
0.00492094
-0.0206908
0.00759777
-0.00656685
0.0196599
-0.00818498
0.0393437
0.00564705
0.00542709
-0.00590558
0.0402721
-0.00413456
0.0411172
-0.00275683
0.0419564
-0.00156192
0.0423577
0.0417074
8.97439e-05
0.0410121
-0.000131408
0.0420736
-0.000434477
0.0426246
-0.00087833
0.0435557
-0.00156599
0.0447846
-0.00144636
0.0464414
-0.00116253
-0.0235109
-0.00192701
0.0239915
-0.0228825
0.00252296
-0.00331471
0.0236743
-0.00956027
0.00215998
-0.00242099
0.00982128
-0.00795334
0.003234
-0.00350893
0.00822827
-0.00711539
0.00428233
-0.00451074
0.0073438
-0.00674447
0.00508234
-0.00522997
0.0068921
-0.00652841
0.00553584
-0.00559664
0.0065892
-0.0065525
0.00568503
-0.00568592
0.00655338
-0.00701095
0.00558499
-0.00550658
0.00693255
-0.00784578
0.00510649
-0.00492219
0.00766148
0.0042384
-0.0175548
-0.00741962
0.016635
0.00410102
-0.0187619
0.00653431
-0.00569243
0.01792
-0.00683009
0.0367909
0.00486792
0.00451497
-0.00482442
0.0382664
-0.00325077
0.0395435
-0.00199838
0.040704
-0.000913811
0.0412731
0.0411809
0.000306673
0.040984
0.000202334
0.0421779
5.31863e-05
0.0427738
-0.000135787
0.0437447
-0.000418548
0.0450673
-0.000606649
0.0469112
-0.000281624
-0.0242883
-0.000892538
0.0245742
-0.0244822
0.00120527
-0.00195159
0.0252285
-0.0105958
0.00301477
-0.00422634
0.0220852
-0.0102779
-0.00909852
0.00553016
-0.00687228
0.0193173
-0.00887662
-0.00807239
0.0081669
-0.00932022
0.0171735
-0.00794781
-0.00734874
0.0102788
-0.0109925
0.0153023
-0.00723987
-0.00671594
0.0114191
-0.0115463
0.0134798
-0.00663675
-0.00638921
0.0113894
-0.0109862
0.0123648
-0.00637873
-0.00652513
0.0103842
-0.00962139
0.0123673
-0.00660503
-0.00710218
0.00874127
-0.00780537
0.013388
-0.00722171
-0.0158021
0.00687465
-0.00600593
0.0149334
-0.0171767
0.00520092
-0.00447555
0.0164513
-0.00488089
0.0347265
0.00371795
0.00322737
-0.00328857
0.0366741
-0.00202574
0.0382807
-0.00100633
0.0396846
-0.000164524
0.0404313
0.0408281
0.000524671
0.0408703
0.00057821
0.0421244
0.000619768
0.0427322
0.0007215
0.043643
0.000870402
0.0449184
0.00108854
0.046693
0.000532518
0.0493716
-0.0252752
-0.0246357
0.00109538
-0.0257949
0.000181356
0.026146
-0.023266
0.00068357
-0.00176966
0.0243521
-0.0207105
0.00303323
-0.00435129
0.0220286
-0.0184937
0.00578292
-0.00716451
0.0198753
-0.0161624
0.00845291
-0.00944176
0.0171513
-0.0136539
0.0101726
-0.010476
0.0139573
-0.0119094
0.01047
-0.0100849
0.0115243
-0.0115287
0.00945632
-0.00858777
0.0106601
-0.0124067
0.00763918
-0.00666096
0.0114285
-0.0140063
0.00567169
-0.00473429
0.0130689
-0.0044137
0.0295178
-0.0163406
-0.0157841
0.00375663
0.00326395
-0.00257469
0.0328875
-0.0013764
0.0354758
-0.000518054
0.0374224
0.000168217
0.0389983
0.000680539
0.039919
0.0407055
0.000699847
0.0406681
0.000927767
0.0418965
0.00116636
0.0424936
0.00154901
0.0432603
0.00209722
0.0443702
0.00290556
0.0458847
0.00427529
0.0480019
0.00551219
0.050832
-0.0260491
-0.0260197
0.00414321
0.0509659
-0.0243535
-0.0252434
0.00137389
0.0482503
-0.0223484
-0.0231326
-0.00168734
0.0441213
-0.0200284
-0.0210317
-0.00467712
0.0376971
-0.0166816
-0.0180257
-0.00717705
0.0298341
-0.0130485
-0.0142857
-0.00850146
0.0232606
-0.0106458
-0.0112904
-0.00807078
0.0195143
-0.0100517
-0.00989325
-0.00594776
0.0195835
-0.0111345
-0.0105721
-0.00360884
0.0230659
-0.0130794
-0.0123254
-0.00157046
0.0274794
-8.45863e-05
0.0314016
0.000810821
0.0345804
0.00125118
0.036982
0.00149165
0.0387578
0.00160812
0.0398026
0.0408456
0.000803473
0.040393
0.00119166
0.0415083
0.00160585
0.0420794
0.0022118
0.0426544
0.00307393
0.0435081
0.00432292
0.0446357
0.00629321
0.0460316
0.00922564
0.0478995
0.0111123
0.0490793
0.0115378
0.0478247
0.0112225
0.0444366
0.0100287
0.0388909
0.00778768
0.0320752
0.00505302
0.0259953
0.00267742
0.0218899
0.00156424
0.0206967
0.00156516
0.023065
0.00204312
0.0270015
0.00268434
0.0307604
0.00315259
0.0341121
0.00320548
0.0369291
0.00297831
0.038985
0.00264994
0.0401309
0.0412676
0.000830165
0.040073
0.00133675
0.0410017
0.00188384
0.0415324
0.00263382
0.0419044
0.00368001
0.0424619
0.0051462
0.0431695
0.00727827
0.0438995
0.0104947
0.0446831
0.0141489
0.0454251
0.0171107
0.0448628
0.0191298
0.0424176
0.0198289
0.0381918
0.0188234
0.0330806
0.016371
0.0284478
0.0131037
0.0251572
0.00995233
0.0238481
0.00776956
0.0252478
0.00643149
0.0283395
0.00579774
0.0313942
0.00557693
0.0343329
0.00523297
0.0372731
0.00457463
0.0396434
0.00379154
0.040914
0.0419682
0.000771477
0.0397465
0.00133014
0.040443
0.00194079
0.0409217
0.00274039
0.0411048
0.00382741
0.0413749
0.00529885
0.0416981
0.0072988
0.0418996
0.010086
0.0418959
0.013747
0.0417641
0.0175764
0.0410335
0.0208221
0.0391719
0.022833
0.036181
0.0231915
0.032722
0.0219564
0.029683
0.0194633
0.0276502
0.0162608
0.0270506
0.0131997
0.0283088
0.0107172
0.030822
0.00895991
0.0331515
0.00791844
0.0353744
0.00711766