/*--------------------------------*- C++ -*----------------------------------*\
| =========                 |                                                 |
| \\      /  F ield         | OpenFOAM: The Open Source CFD Toolbox           |
|  \\    /   O peration     | Version:  5.x                                   |
|   \\  /    A nd           | Web:      www.OpenFOAM.org                      |
|    \\/     M anipulation  |                                                 |
\*---------------------------------------------------------------------------*/
FoamFile
{
    version     2.0;
    format      ascii;
    class       volVectorField;
    location    "1";
    object      U;
}
// * * * * * * * * * * * * * * * * * * * * * * * * * * * * * * * * * * * * * //

dimensions      [0 1 -1 0 0 0 0];

internalField   nonuniform List<vector> 
10486
(
(8.00162 -0.0161666 5.8292e-24)
(8.00086 -0.0303144 -9.9532e-23)
(8.00127 -0.0334062 0)
(8.00086 -0.0411549 0)
(8.00074 -0.0463634 -8.32898e-22)
(8.00042 -0.0507535 -3.15298e-22)
(8.00001 -0.0534039 3.16589e-22)
(7.99946 -0.0535303 -3.29478e-23)
(7.99881 -0.050467 3.83359e-22)
(7.99817 -0.0437657 0)
(7.99766 -0.0334695 0)
(7.99739 -0.020323 2.39925e-22)
(7.99743 -0.00572748 4.93248e-22)
(7.99767 0.00870327 0)
(7.99819 0.0213832 0)
(7.99873 0.0311131 4.77843e-22)
(7.99925 0.0376874 -1.59158e-23)
(7.99977 0.0412398 -1.3715e-21)
(8.0002 0.04198 1.29285e-21)
(8.00056 0.0403899 4.03466e-22)
(8.00077 0.037333 0)
(8.00122 0.0312684 0)
(8.00088 0.02891 -1.76782e-22)
(8.00168 0.0154866 3.48393e-22)
(8.01823 -0.0560542 3.27489e-24)
(8.01354 -0.104124 0)
(8.01579 -0.11674 -4.6632e-22)
(8.0131 -0.146375 -1.67563e-23)
(8.01196 -0.167608 5.44796e-22)
(8.00894 -0.187478 -3.05426e-23)
(8.00431 -0.202228 5.93226e-22)
(7.9981 -0.209101 1.46981e-21)
(7.99034 -0.2052 -7.68837e-22)
(7.98189 -0.188077 0)
(7.97414 -0.156854 0)
(7.96871 -0.113195 -7.30476e-22)
(7.96696 -0.0618114 -1.49784e-21)
(7.96897 -0.00875095 4.99623e-22)
(7.97417 0.0398689 0)
(7.98127 0.078727 0)
(7.98825 0.106185 9.30025e-22)
(7.99502 0.122521 -9.60535e-22)
(8.00077 0.128576 -1.76006e-21)
(8.0055 0.125679 -8.27847e-22)
(8.00861 0.117591 -1.66482e-23)
(8.01256 0.0984819 -1.51059e-21)
(8.01184 0.0910287 0)
(8.01717 0.0496048 -2.60155e-24)
(8.05457 -0.0991622 9.04157e-23)
(8.04657 -0.181455 0)
(8.05044 -0.205503 0)
(8.04549 -0.261113 -4.46119e-22)
(8.0428 -0.302642 1.12201e-21)
(8.03492 -0.344931 -3.54303e-21)
(8.02257 -0.379409 -1.38732e-21)
(8.00388 -0.401785 -1.54779e-21)
(7.97937 -0.405895 3.24314e-21)
(7.95116 -0.38585 1.89106e-21)
(7.92367 -0.338457 -1.93225e-21)
(7.90268 -0.265246 4.90729e-22)
(7.89353 -0.174 1.55522e-21)
(7.89742 -0.0764772 0)
(7.91197 0.0155293 -6.20716e-21)
(7.9338 0.0911079 2.02493e-21)
(7.95641 0.146138 0)
(7.97849 0.181033 1.83151e-21)
(7.99725 0.197271 0)
(8.01288 0.196803 1.64446e-21)
(8.02355 0.187338 2.33599e-21)
(8.0345 0.157455 7.43067e-22)
(8.03634 0.146923 0)
(8.0479 0.0820628 -1.68991e-22)
(8.10951 -0.139647 -1.74386e-22)
(8.10136 -0.250974 5.29603e-22)
(8.10704 -0.285936 8.54643e-22)
(8.10182 -0.366962 9.46964e-22)
(8.09857 -0.429723 0)
(8.0856 -0.497606 1.16767e-21)
(8.06118 -0.557616 5.26659e-21)
(8.02485 -0.602357 -1.38635e-21)
(7.97432 -0.622259 3.31722e-21)
(7.91335 -0.605997 -5.3994e-21)
(7.85147 -0.545842 3.81474e-23)
(7.80054 -0.442171 1.07666e-21)
(7.77485 -0.307248 -2.16329e-21)
(7.77871 -0.160935 -2.1517e-21)
(7.80696 -0.0220652 1.07288e-20)
(7.8517 0.092045 -4.22322e-21)
(7.89908 0.175403 -1.918e-21)
(7.94544 0.22893 1.11501e-22)
(7.98591 0.255483 5.30794e-21)
(8.01924 0.257557 -1.64512e-21)
(8.0426 0.24771 -4.56959e-21)
(8.06405 0.20834 1.49268e-21)
(8.07169 0.196163 -3.4581e-22)
(8.09074 0.112378 -3.3486e-22)
(8.17792 -0.176124 0)
(8.17277 -0.310058 -3.79739e-23)
(8.18205 -0.354364 -6.90302e-22)
(8.17993 -0.458356 -7.71068e-22)
(8.1792 -0.542128 1.27819e-22)
(8.16239 -0.64033 -3.38362e-21)
(8.13314 -0.728574 3.88237e-22)
(8.07251 -0.804693 -3.13103e-21)
(7.98446 -0.84828 -1.89137e-22)
(7.8704 -0.840431 8.44488e-22)
(7.74845 -0.766924 5.86162e-22)
(7.64993 -0.623374 -3.78541e-21)
(7.59776 -0.428732 3.11941e-22)
(7.60162 -0.21908 4.08739e-21)
(7.65191 -0.0242528 1.94869e-23)
(7.72823 0.130176 8.85523e-22)
(7.81551 0.238344 0)
(7.9 0.304118 -9.36324e-22)
(7.96872 0.333033 -5.18974e-21)
(8.02629 0.330421 1.2141e-22)
(8.0658 0.316039 3.11779e-21)
(8.10009 0.263991 1.45365e-21)
(8.11493 0.248891 2.87641e-23)
(8.14291 0.145762 0)
(8.25612 -0.211254 -1.12493e-22)
(8.25649 -0.363535 -3.1702e-22)
(8.27239 -0.416392 6.90159e-22)
(8.27786 -0.54214 7.93905e-22)
(8.28536 -0.648883 0)
(8.27364 -0.773685 -5.1194e-22)
(8.2197 -0.843494 1.09376e-21)
(8.15447 -0.949156 2.60993e-21)
(8.04197 -1.02858 0)
(7.88246 -1.04932 3.86144e-21)
(7.69574 -0.979489 6.22499e-21)
(7.52997 -0.808367 3.45865e-21)
(7.43153 -0.559314 -5.68473e-22)
(7.41969 -0.285585 4.83323e-21)
(7.48284 -0.0341602 0)
(7.58752 0.16014 6.84243e-21)
(7.71148 0.300915 0)
(7.83122 0.382334 -1.96763e-21)
(7.96104 0.452684 7.29311e-23)
(8.04252 0.438221 -3.11552e-21)
(8.09963 0.409514 -1.48354e-21)
(8.14695 0.337377 0)
(8.16847 0.315605 6.51593e-22)
(8.20596 0.188161 0)
(8.34279 -0.247046 -2.34345e-23)
(8.35164 -0.414999 4.38335e-22)
(8.37773 -0.476635 5.83688e-22)
(8.39643 -0.623055 -5.84109e-22)
(8.42183 -0.751822 -4.10939e-22)
(8.38533 -0.858256 6.07891e-21)
(8.35457 -1.00245 1.85457e-21)
(8.27981 -1.17328 -5.13359e-21)
(8.12561 -1.32053 6.33241e-21)
(7.8812 -1.39609 -1.1374e-20)
(7.56862 -1.33283 1.7845e-20)
(7.27025 -1.08656 -1.92215e-21)
(7.09782 -0.701736 -3.03193e-21)
(7.091 -0.286287 -7.74136e-21)
(7.21407 0.067647 -4.82493e-21)
(7.39459 0.320794 -1.47667e-20)
(7.59209 0.480636 0)
(7.77391 0.556604 0)
(7.92645 0.580871 -3.42057e-21)
(8.0785 0.579789 5.22114e-21)
(8.15337 0.531119 -4.23482e-21)
(8.21142 0.431049 1.32056e-21)
(8.23798 0.398182 -5.63603e-22)
(8.28355 0.240966 5.63296e-22)
(8.43672 -0.281324 -8.69234e-23)
(8.45793 -0.460921 3.25733e-22)
(8.49796 -0.530975 -3.88579e-22)
(8.53639 -0.695043 -6.47921e-22)
(8.58718 -0.851279 7.17572e-22)
(8.55222 -0.981518 -1.00654e-21)
(8.55422 -1.18443 -6.90535e-21)
(8.47221 -1.38654 2.08926e-21)
(8.30737 -1.6291 -9.84073e-23)
(7.97181 -1.82387 0)
(7.47909 -1.82722 9.39214e-21)
(6.9651 -1.51286 -5.7066e-21)
(6.66325 -0.933119 7.16005e-25)
(6.66092 -0.311476 -1.73512e-20)
(6.86574 0.193043 1.10522e-20)
(7.15125 0.521872 5.05459e-21)
(7.45093 0.706551 4.58829e-21)
(7.74272 0.813069 2.77514e-21)
(7.94133 0.793045 0)
(8.14715 0.749065 0)
(8.23482 0.669834 0)
(8.29886 0.536155 0)
(8.32774 0.489271 -5.06988e-22)
(8.37788 0.300387 0)
(8.53476 -0.308841 1.04458e-22)
(8.57271 -0.492391 -3.41592e-22)
(8.63028 -0.568496 0)
(8.69518 -0.744404 -1.86012e-22)
(8.77931 -0.918293 7.28367e-22)
(8.77439 -1.0849 2.57538e-22)
(8.82571 -1.35004 -1.00424e-21)
(8.77066 -1.6385 1.49873e-21)
(8.62695 -2.00031 8.7585e-21)
(8.22426 -2.4449 1.26203e-20)
(7.41195 -2.67031 2.70162e-20)
(6.45481 -2.23995 -6.79644e-19)
(5.97441 -1.22669 -4.14917e-20)
(6.01946 -0.241481 5.8788e-19)
(6.37512 0.422142 -2.34894e-20)
(6.84189 0.838059 -2.14287e-20)
(7.30831 1.03918 1.81259e-20)
(7.76051 1.12804 -1.85328e-21)
(8.01475 1.03873 -9.30173e-21)
(8.25924 0.924457 -3.05481e-21)
(8.34838 0.807582 -1.0384e-21)
(8.41146 0.639919 0)
(8.43851 0.57832 6.14123e-23)
(8.48826 0.360874 4.44845e-22)
(8.63153 -0.324814 0)
(8.68992 -0.501307 8.43955e-23)
(8.76793 -0.577694 2.08306e-22)
(8.86532 -0.755537 -4.15645e-22)
(8.99125 -0.930539 -3.17692e-22)
(9.03419 -1.13116 1.16152e-22)
(9.16473 -1.43364 -1.96625e-22)
(9.21065 -1.80423 1.59543e-21)
(9.20045 -2.35771 3.4819e-22)
(8.91051 -3.34125 8.6613e-21)
(7.62789 -4.0447 7.22009e-21)
(5.48638 -3.66484 4.56745e-20)
(4.29512 -1.36555 6.22424e-21)
(5.20865 0.192106 1.61484e-20)
(5.90414 0.878982 -2.16096e-20)
(6.50505 1.40946 -2.28772e-20)
(7.24314 1.54191 -8.79868e-21)
(7.87019 1.49247 0)
(8.16316 1.29305 -5.35801e-21)
(8.41951 1.08896 6.39577e-21)
(8.49533 0.931218 -2.73725e-21)
(8.54843 0.733294 5.93511e-22)
(8.56798 0.65799 8.1703e-22)
(8.61167 0.418646 1.53241e-22)
(8.72052 -0.327733 1.34018e-23)
(8.8011 -0.485167 2.98955e-23)
(8.90072 -0.553984 -7.30023e-23)
(9.03284 -0.720826 0)
(9.20419 -0.878709 3.50733e-22)
(9.30438 -1.093 -7.44168e-23)
(9.52631 -1.38539 1.40142e-22)
(9.7112 -1.76499 8.00406e-22)
(10.012 -2.34543 -4.3891e-22)
(10.4884 -3.45675 4.3052e-21)
(8.98051 -8.14238 -1.84299e-20)
(4.47482 -7.05829 -1.7386e-20)
(-1.25603 -5.39143 -4.78755e-20)
(4.94993 1.36522 1.07955e-22)
(5.06311 1.40676 1.52503e-20)
(6.36966 2.35872 1.98414e-20)
(7.3873 2.26351 4.13779e-22)
(8.04721 1.87779 -5.38166e-21)
(8.41067 1.5289 3.87082e-21)
(8.62569 1.22705 1.15191e-21)
(8.67351 1.03302 -1.46511e-21)
(8.7066 0.812078 2.36657e-22)
(8.71219 0.725508 1.44969e-22)
(8.74394 0.472605 -2.40753e-22)
(8.79533 -0.319257 -3.1398e-23)
(8.89764 -0.44738 2.87172e-23)
(9.01749 -0.501288 -2.8111e-23)
(9.18151 -0.645233 6.71076e-23)
(9.39406 -0.770401 -3.52452e-22)
(9.54965 -0.971628 9.28526e-22)
(9.85427 -1.2202 0)
(10.131 -1.54946 1.84364e-21)
(10.5089 -1.89123 2.2725e-19)
(11.3026 -1.68962 -5.38974e-21)
(13.6126 4.39196 3.84585e-20)
(-3.50987 5.73536 -5.00226e-20)
(0.233343 0.0509713 -1.32878e-20)
(2.7793 -1.68384 1.00863e-20)
(-6.69813 -2.93342 2.17274e-17)
(6.98881 4.23711 4.71108e-21)
(8.05742 3.10059 -9.05658e-22)
(8.55092 2.246 2.77914e-21)
(8.76041 1.70211 -9.33795e-22)
(8.87132 1.31219 -6.26002e-22)
(8.87655 1.10724 0)
(8.88012 0.873373 2.41744e-22)
(8.86622 0.779573 -9.73215e-23)
(8.88045 0.522397 -6.18823e-23)
(8.8505 -0.301773 3.11549e-23)
(8.97378 -0.393626 -1.29284e-22)
(9.10916 -0.428144 0)
(9.29806 -0.540939 5.48081e-22)
(9.54203 -0.625075 -4.51205e-22)
(9.74184 -0.791475 6.97554e-22)
(10.1136 -0.973218 0)
(10.4795 -1.26388 1.16493e-21)
(10.7961 -1.66367 -2.91486e-20)
(10.3099 -2.10564 -2.847e-21)
(6.85511 -0.483633 2e-21)
(2.42457 1.18307 -3.78491e-21)
(4.82158 0.960671 -8.68316e-21)
(-6.43314 0.408055 2.02267e-20)
(7.65301 4.89318 0)
(9.42753 3.45645 -1.56266e-22)
(9.24731 2.32849 2.76304e-22)
(9.15156 1.74869 1.00767e-22)
(9.13403 1.34081 -6.54512e-23)
(9.09073 1.14654 0)
(9.05972 0.912081 -5.7459e-23)
(9.02386 0.817632 -1.09013e-23)
(9.01617 0.566292 4.71805e-24)
(8.8833 -0.275178 0)
(9.02667 -0.327838 8.74156e-23)
(9.17029 -0.343369 5.50552e-22)
(9.37532 -0.419792 -1.48474e-21)
(9.63614 -0.465521 0)
(9.86131 -0.581909 8.76455e-22)
(10.2719 -0.663809 -2.51318e-21)
(10.7704 -0.811235 3.25756e-21)
(11.6693 -1.22019 0)
(13.5619 -4.18351 5.0198e-20)
(3.28417 -4.96493 6.17249e-21)
(0.254917 -1.62789 -1.53959e-20)
(0.195199 0.88007 -1.37032e-20)
(3.51306 1.2185 -1.93209e-20)
(-12.1035 2.26894 6.00662e-19)
(6.61174 0.898359 -2.2645e-20)
(10.6946 2.60681 0)
(9.76838 1.94101 0)
(9.45931 1.66316 0)
(9.37881 1.33213 6.54511e-23)
(9.29788 1.14908 1.50026e-22)
(9.23473 0.924878 2.71168e-23)
(9.17765 0.836372 9.09189e-24)
(9.14558 0.600939 0)
(8.89434 -0.238531 -9.49373e-23)
(9.05523 -0.252409 2.51437e-22)
(9.20004 -0.252882 5.94048e-22)
(9.41531 -0.292222 6.61806e-22)
(9.67861 -0.307407 0)
(9.90772 -0.382117 0)
(10.2781 -0.383917 4.94043e-21)
(10.6863 -0.302262 0)
(11.4425 0.291686 0)
(12.6628 4.20663 1.08664e-19)
(0.806858 6.48498 0)
(3.32664 7.28512 5.195e-19)
(-0.610447 2.50494 -7.51189e-24)
(3.20768 1.82373 -2.4957e-21)
(-5.17543 1.71037 -6.34062e-21)
(4.18076 -1.87433 -2.27254e-21)
(10.2317 -0.202179 1.34582e-22)
(9.53696 1.63754 -2.66806e-21)
(9.63369 1.61159 -3.68215e-21)
(9.60201 1.29908 -2.48062e-22)
(9.49129 1.11835 -1.50044e-22)
(9.39713 0.911837 -1.68998e-22)
(9.32028 0.833409 -9.09406e-24)
(9.26324 0.623007 -2.06631e-23)
(8.88556 -0.191876 1.9452e-22)
(9.05983 -0.169005 -8.25719e-22)
(9.20129 -0.157212 1.37669e-21)
(9.42573 -0.161025 -3.13722e-21)
(9.68822 -0.148119 3.68334e-21)
(9.91408 -0.207772 -5.26812e-21)
(10.2351 -0.212907 -5.61694e-21)
(10.4343 -0.195017 5.99356e-21)
(10.2471 0.159853 5.72078e-21)
(8.53554 1.23125 0)
(4.48492 0.174203 0)
(1.68622 -1.21348 0)
(1.6645 -1.06312 3.62322e-20)
(1.79918 -0.487768 -2.93517e-22)
(1.13125 0.363096 1.43906e-21)
(4.0812 0.456761 1.29221e-20)
(6.55134 1.08669 2.86146e-21)
(9.54855 2.37296 8.59673e-21)
(9.93715 1.66575 -1.51831e-21)
(9.83521 1.1918 -2.19319e-22)
(9.66872 1.04798 -1.54192e-21)
(9.54007 0.870374 1.04034e-21)
(9.44543 0.807491 -2.86543e-22)
(9.36422 0.63056 5.36922e-23)
(8.85903 -0.137411 2.40706e-22)
(9.04008 -0.0800226 -5.19769e-22)
(9.17801 -0.0551588 6.48504e-22)
(9.4067 -0.0206332 1.00069e-21)
(9.67324 0.022963 -3.24039e-21)
(9.92209 -0.019762 8.62535e-23)
(10.2889 -0.0453297 5.46899e-21)
(10.5668 -0.232455 -3.29052e-21)
(10.2716 -0.880025 -6.80441e-21)
(9.77844 -3.12051 7.92737e-21)
(4.23888 -3.4591 1.07733e-20)
(2.21024 -1.71696 2.83212e-20)
(1.10275 -0.684527 4.56682e-20)
(0.721541 -0.527425 0)
(0.820724 -0.22823 1.37335e-20)
(1.40979 1.13893 0)
(6.46604 3.84251 5.9786e-24)
(10.8165 2.10574 3.65684e-22)
(10.5442 1.34969 -6.90592e-21)
(10.0204 0.991726 -3.19768e-22)
(9.80155 0.930774 1.61827e-21)
(9.65144 0.799608 0)
(9.54643 0.760843 2.54913e-23)
(9.4438 0.623994 9.82382e-23)
(8.81681 -0.0808041 -2.90804e-24)
(8.99439 0.0107828 -6.01046e-22)
(9.12909 0.0483045 -4.23706e-23)
(9.35146 0.125994 1.6547e-21)
(9.61444 0.208722 -5.9953e-22)
(9.89712 0.214628 2.59409e-21)
(10.3134 0.287192 -3.13944e-21)
(11.0279 0.352829 2.36685e-21)
(12.7771 0.153739 1.04981e-20)
(10.136 -0.886144 -2.60163e-20)
(3.27051 -1.90866 0)
(0.311996 -1.85841 -1.77966e-20)
(0.655209 -1.42487 -8.17225e-22)
(0.301376 -1.09635 0)
(0.249241 -0.698447 9.82323e-21)
(0.438219 -0.868482 -9.52743e-23)
(6.89495 -1.48474 0)
(11.2154 -0.111613 0)
(10.522 0.647449 -4.36248e-21)
(10.0457 0.828507 1.57669e-22)
(9.86255 0.812472 -4.9258e-22)
(9.72328 0.723903 3.46866e-22)
(9.61945 0.70345 -3.28631e-22)
(9.49943 0.606165 -6.20296e-24)
(8.75997 -0.0294951 -9.74575e-23)
(8.92423 0.0938263 8.59664e-22)
(9.05067 0.144346 -5.85151e-22)
(9.25757 0.260861 -8.26281e-22)
(9.49645 0.382072 0)
(9.79698 0.532596 -4.37524e-22)
(10.137 0.659131 8.03222e-22)
(10.5928 0.992286 -4.29098e-21)
(11.0693 1.72784 -5.00261e-21)
(10.0237 3.87147 1.70429e-20)
(6.27584 3.60804 1.63777e-20)
(1.85247 -0.145845 -1.07463e-20)
(0.731575 -1.43826 0)
(-0.0184614 -1.34987 1.88214e-22)
(0.0642397 -1.08523 -9.10278e-21)
(1.32506 -1.21716 -7.84749e-21)
(6.07997 -1.31227 7.3053e-22)
(9.61698 -0.0906773 0)
(9.91976 0.748409 4.26404e-22)
(9.97986 0.801806 6.73508e-22)
(9.89081 0.755395 -2.36499e-22)
(9.77273 0.670107 -3.60659e-22)
(9.67231 0.645308 2.05192e-22)
(9.5338 0.579808 6.05886e-23)
(8.68718 0.0126353 0)
(8.8367 0.160529 6.50825e-22)
(8.9465 0.222443 -5.36313e-22)
(9.13017 0.366535 0)
(9.33432 0.518708 -2.19282e-21)
(9.57531 0.706269 2.19285e-21)
(9.86131 0.872592 3.79518e-22)
(10.1167 1.16775 -5.03064e-22)
(10.186 1.54044 -1.02227e-20)
(9.48272 1.7161 6.20504e-21)
(7.71149 1.1724 -6.06615e-21)
(4.25056 -0.85311 -3.42549e-21)
(0.970979 -1.59126 0)
(-0.4458 -1.24393 -3.05876e-21)
(-0.188359 -0.696928 8.67554e-21)
(1.38632 -0.434801 1.40266e-21)
(5.30708 0.344007 1.37846e-22)
(9.06822 1.10472 -7.14036e-23)
(9.93823 1.06281 9.8945e-22)
(10.0249 0.861951 -9.89159e-22)
(9.96518 0.73758 2.36588e-22)
(9.83167 0.624827 -3.54987e-22)
(9.72126 0.580797 2.74366e-22)
(9.55252 0.541375 0)
(8.60261 0.0439729 0)
(8.7361 0.207035 -2.97644e-22)
(8.82544 0.276452 6.93702e-22)
(8.97911 0.438769 -5.7409e-22)
(9.14871 0.611305 -9.47088e-22)
(9.34301 0.830985 6.14373e-22)
(9.59975 1.00468 0)
(9.85852 1.23948 0)
(10.0343 1.35177 3.05926e-22)
(10.1333 0.957559 4.94469e-21)
(9.15267 -0.275641 -4.24786e-21)
(4.94378 -0.854276 -2.82983e-22)
(0.929165 -0.572922 -6.44862e-22)
(-1.0902 -0.408934 1.94364e-21)
(-0.745858 0.20164 2.39855e-21)
(1.10639 0.651814 -1.04558e-21)
(4.39014 1.22957 -2.72399e-22)
(9.00546 1.8646 -4.2345e-23)
(10.3422 1.22086 7.38931e-22)
(10.2717 0.852054 -4.85854e-22)
(10.113 0.66759 -4.29759e-22)
(9.91075 0.545439 6.06013e-22)
(9.77264 0.490446 -1.35985e-22)
(9.55734 0.480545 0)
(8.51249 0.063596 -7.17368e-23)
(8.628 0.232228 2.4031e-23)
(8.69495 0.304188 3.36157e-22)
(8.81297 0.47703 3.50082e-22)
(8.94349 0.658091 -1.30708e-21)
(9.09347 0.908028 8.75114e-22)
(9.33956 1.11615 1.20882e-21)
(9.63824 1.41392 2.63389e-22)
(10.0568 1.58791 2.00773e-21)
(11.0142 1.38187 9.78232e-22)
(9.81965 1.15871 -4.44794e-21)
(4.22333 1.63647 1.84518e-21)
(0.745025 2.54754 -1.81671e-22)
(-0.97454 1.86622 1.01704e-21)
(-1.12701 1.61818 1.14396e-21)
(0.918978 1.66242 6.10316e-22)
(3.89301 1.58797 -1.42288e-21)
(9.09616 1.87952 -2.8952e-22)
(10.9402 0.916903 4.73513e-22)
(10.5915 0.626345 -1.47456e-21)
(10.2765 0.473175 3.82827e-22)
(9.98291 0.398726 2.33019e-22)
(9.8127 0.356339 1.03091e-22)
(9.54453 0.387802 -6.2714e-23)
(8.42276 0.0707191 0)
(8.51801 0.234837 0)
(8.56176 0.303961 1.52231e-22)
(8.64081 0.476006 3.77865e-23)
(8.72184 0.653811 -1.90034e-22)
(8.81192 0.905346 0)
(8.98581 1.17538 -2.36307e-22)
(9.20964 1.62242 -7.37395e-22)
(9.64 2.16438 -3.29599e-22)
(10.5112 3.21821 -3.90293e-22)
(8.85168 4.86797 0)
(3.51752 6.21223 7.79216e-22)
(1.43925 5.18682 2.81435e-22)
(-0.0654846 4.13698 4.4009e-22)
(-0.73159 3.31591 2.72465e-22)
(1.32406 2.54474 3.73569e-22)
(4.28795 1.51809 7.77753e-22)
(9.41544 0.987204 4.33821e-22)
(11.3488 0.263092 0)
(10.7575 0.188944 -3.58247e-22)
(10.3577 0.171063 1.07607e-22)
(10.0035 0.188317 2.5069e-22)
(9.81813 0.180008 0)
(9.50556 0.26503 0)
(8.33894 0.0656664 0)
(8.41362 0.214221 0)
(8.43564 0.27387 0)
(8.47729 0.429908 0)
(8.5049 0.5852 -8.37219e-24)
(8.51625 0.8153 -5.38535e-23)
(8.57838 1.10698 3.97103e-22)
(8.58301 1.6016 -3.9674e-23)
(8.66503 2.32705 -1.6099e-22)
(8.53237 3.77344 0)
(6.91014 5.87479 0)
(3.96766 6.32493 7.70153e-23)
(2.64916 5.32394 -4.46745e-23)
(0.455842 5.45278 -5.08952e-22)
(0.328779 4.57898 5.04506e-22)
(2.61041 3.03723 -2.02198e-22)
(5.62584 1.03535 4.79746e-22)
(9.98605 -0.261205 -1.46321e-21)
(11.3122 -0.365537 6.25791e-22)
(10.6973 -0.278961 1.08175e-22)
(10.3012 -0.151329 0)
(9.95463 -0.0414139 0)
(9.76654 -0.017823 0)
(9.44429 0.124311 0)
(8.26705 0.049896 2.75253e-24)
(8.32391 0.172422 -2.75232e-24)
(8.32913 0.215293 -3.97297e-24)
(8.34111 0.340726 9.95765e-25)
(8.3225 0.452951 -8.45528e-24)
(8.25973 0.635502 -4.85472e-23)
(8.20437 0.900139 6.26151e-23)
(7.99237 1.3002 -5.77084e-23)
(7.77848 1.92998 -5.90788e-23)
(7.06609 2.81136 -9.84694e-24)
(5.76986 3.76479 0)
(4.17874 4.3306 -1.94279e-22)
(1.96706 5.43101 0)
(0.773781 5.69011 0)
(1.73472 4.76161 0)
(4.6859 2.66161 0)
(7.47988 0.279153 -3.53182e-23)
(10.5137 -1.11804 -9.59703e-22)
(10.9789 -0.82418 -4.20184e-22)
(10.5061 -0.622792 -2.11605e-22)
(10.1447 -0.429536 1.20407e-22)
(9.8495 -0.249153 -1.41255e-22)
(9.67396 -0.212987 -1.80724e-23)
(9.35272 -0.0156889 1.80804e-23)
(8.21131 0.0262738 -5.18578e-24)
(8.25723 0.11553 1.04966e-23)
(8.2537 0.134948 -7.51862e-24)
(8.24876 0.217719 0)
(8.19935 0.271471 -1.9846e-23)
(8.08734 0.374393 4.03973e-23)
(7.93808 0.573526 8.03022e-23)
(7.58819 0.808555 1.9839e-22)
(7.1712 1.21926 0)
(6.3228 1.72386 0)
(5.01725 2.39442 0)
(2.86142 3.79494 -4.07522e-24)
(1.35806 4.55255 0)
(1.27121 4.35472 0)
(3.53576 2.8679 0)
(6.71354 1.1295 0)
(9.08082 -0.599899 -1.28271e-21)
(10.8054 -1.49647 0)
(10.6195 -1.16858 -4.63222e-23)
(10.2777 -0.869428 1.01146e-23)
(9.95095 -0.663569 0)
(9.707 -0.424668 1.99557e-23)
(9.56225 -0.385536 -3.25669e-23)
(9.22604 -0.137911 1.87505e-24)
(8.17595 0.000969743 2.11105e-23)
(8.21922 0.0535381 4.91343e-24)
(8.21775 0.0444996 -2.08387e-23)
(8.2116 0.0774006 7.48516e-23)
(8.1567 0.0612021 -1.73375e-24)
(8.03053 0.063789 -9.90879e-24)
(7.8265 0.155801 -1.09896e-24)
(7.41929 0.186055 -2.66678e-22)
(6.88071 0.359371 2.40776e-22)
(5.81954 0.654068 0)
(3.75766 1.6938 0)
(2.10711 2.32314 0)
(1.42656 2.25573 1.35412e-27)
(2.42206 1.38382 0)
(4.95678 0.369374 0)
(7.822 -0.539217 -9.25509e-22)
(10.0125 -1.50458 0)
(10.8346 -1.78116 -1.15867e-22)
(10.2856 -1.48279 -2.08232e-23)
(10.0112 -1.09822 1.64344e-22)
(9.73069 -0.8634 -7.1032e-23)
(9.53454 -0.571801 4.64787e-23)
(9.43133 -0.520021 -1.68675e-23)
(9.07617 -0.227811 -9.00884e-24)
(8.15958 -0.0186185 0)
(8.21326 -0.0011996 -2.79952e-23)
(8.22495 -0.0402009 1.42364e-23)
(8.23534 -0.0561821 1.19771e-23)
(8.20698 -0.143958 -4.8406e-23)
(8.11089 -0.242304 4.9385e-23)
(7.89793 -0.288768 -5.64087e-23)
(7.52736 -0.506664 0)
(6.85052 -0.579331 2.6542e-22)
(5.0007 -0.0652386 -2.74759e-22)
(3.28897 0.254317 0)
(2.25037 0.00211582 -3.65746e-25)
(2.1928 -0.944685 0)
(2.92544 -1.31362 0)
(5.76365 -1.70217 0)
(8.38695 -2.13842 -1.16677e-22)
(10.2944 -2.56692 0)
(10.577 -2.25887 -9.05952e-23)
(9.88416 -1.78544 3.75063e-23)
(9.66692 -1.31868 4.96685e-23)
(9.46136 -1.01667 -4.96908e-23)
(9.32663 -0.68535 4.70482e-24)
(9.2685 -0.601212 4.45242e-24)
(8.90985 -0.275266 0)
(8.15985 -0.026659 1.3577e-23)
(8.23757 -0.0371193 1.83627e-25)
(8.27108 -0.102497 -2.05987e-23)
(8.31588 -0.156414 -2.49978e-24)
(8.34137 -0.300847 2.45361e-23)
(8.32183 -0.478935 -5.03246e-23)
(8.16397 -0.663312 4.37461e-23)
(7.90028 -1.11261 9.1156e-23)
(6.62256 -1.14948 0)
(4.78868 -1.05883 -1.4339e-23)
(3.55439 -1.35613 0)
(3.3891 -2.33617 2.63359e-25)
(2.91918 -3.37386 2.17094e-28)
(3.32194 -4.22444 4.77806e-24)
(5.8813 -4.42066 0)
(8.41836 -4.13428 -4.87967e-23)
(9.86939 -3.66739 2.54357e-22)
(9.9259 -2.78728 -3.98006e-23)
(9.36005 -2.00062 -1.12245e-22)
(9.23511 -1.47283 3.47658e-23)
(9.13272 -1.09962 -3.0591e-24)
(9.08166 -0.747401 3.0598e-24)
(9.06706 -0.617608 -6.56668e-24)
(8.73296 -0.278431 3.57372e-24)
(8.17217 -0.0205905 0)
(8.28449 -0.046998 0)
(8.344 -0.129498 0)
(8.43521 -0.202329 6.29016e-25)
(8.53039 -0.375858 -1.50965e-23)
(8.62206 -0.591873 -2.37319e-23)
(8.5932 -0.884762 -6.81475e-23)
(8.2925 -1.42382 -9.14145e-23)
(6.65251 -1.58708 -1.9454e-22)
(5.07992 -1.92937 0)
(4.32108 -2.57805 0)
(4.39055 -3.41171 0)
(3.9968 -4.32853 3.78385e-29)
(4.14206 -5.42193 0)
(5.72688 -5.88558 0)
(7.72119 -5.344 0)
(8.80011 -4.11866 -4.57617e-24)
(8.97164 -2.99202 0)
(8.75194 -2.04792 -1.72428e-24)
(8.75131 -1.4972 -2.34023e-23)
(8.76437 -1.09335 0)
(8.80908 -0.739164 -1.38206e-23)
(8.83435 -0.566576 4.78964e-24)
(8.55853 -0.242304 0)
(8.18815 -0.00193589 -1.50391e-23)
(8.34204 -0.0292879 -6.00955e-25)
(8.42642 -0.116093 1.00536e-23)
(8.56531 -0.184717 -7.97074e-24)
(8.73209 -0.3537 1.02739e-23)
(8.94367 -0.554334 1.36012e-23)
(9.08292 -0.889105 5.56173e-23)
(8.72856 -1.42645 4.13965e-24)
(7.05576 -1.85607 0)
(5.68008 -2.49669 0)
(5.0838 -3.21829 0)
(4.99306 -3.82267 0)
(4.89123 -4.32823 0)
(4.94803 -4.99389 0)
(5.69932 -5.32114 0)
(6.85463 -4.90275 0)
(7.67006 -3.76153 1.50437e-24)
(8.05996 -2.82252 1.87086e-25)
(8.1432 -1.90785 -3.06997e-23)
(8.27176 -1.37545 -5.87996e-24)
(8.39375 -0.991985 -8.98587e-24)
(8.52656 -0.654123 2.28134e-23)
(8.5893 -0.455051 3.29665e-23)
(8.40379 -0.17347 -1.43506e-23)
(8.20077 0.0253082 -1.2923e-23)
(8.39571 0.0122377 1.96486e-23)
(8.49976 -0.0656121 -4.0119e-24)
(8.67625 -0.108667 3.7816e-23)
(8.90298 -0.241109 -2.36555e-23)
(9.20916 -0.380116 -8.80822e-24)
(9.50988 -0.675087 6.0564e-23)
(9.30566 -1.15681 0)
(7.74797 -1.83666 0)
(6.46972 -2.69744 0)
(5.78191 -3.52106 0)
(5.45368 -4.12987 0)
(5.24956 -4.45683 0)
(5.25073 -4.55117 0)
(5.58293 -4.44146 0)
(6.20208 -4.01537 0)
(6.82653 -3.15304 -2.41795e-23)
(7.33133 -2.44346 0)
(7.59013 -1.60835 -1.17242e-23)
(7.83693 -1.13331 2.36609e-23)
(8.05366 -0.800561 0)
(8.25702 -0.499943 -5.9211e-24)
(8.35465 -0.296434 -1.27073e-23)
(8.28113 -0.0772436 1.928e-23)
(8.20302 0.0556458 1.3928e-24)
(8.43124 0.0691639 0)
(8.54798 0.0122926 0)
(8.74345 0.00920095 -1.34069e-23)
(9.00598 -0.0634878 -4.02438e-24)
(9.36669 -0.0997695 -1.94421e-23)
(9.78754 -0.313458 -1.58065e-24)
(9.95326 -0.590625 0)
(8.59358 -1.43418 0)
(7.44923 -2.47674 0)
(6.62239 -3.51853 0)
(5.96719 -4.28568 0)
(5.36701 -4.62293 0)
(5.03472 -4.49514 0)
(5.10981 -4.01107 0)
(5.54219 -3.30848 0)
(6.15505 -2.56877 -3.28237e-23)
(6.73099 -1.9313 4.19722e-24)
(7.13213 -1.1668 3.55662e-23)
(7.47238 -0.791882 -9.44006e-24)
(7.76487 -0.526826 9.43965e-24)
(8.02461 -0.28858 0)
(8.15547 -0.108038 0)
(8.19332 0.0379345 3.20869e-24)
(8.18946 0.0821416 1.15306e-23)
(8.43817 0.129725 9.70872e-24)
(8.56028 0.103282 7.41109e-25)
(8.75321 0.144156 7.59604e-25)
(9.02054 0.147529 5.55703e-25)
(9.39273 0.204178 -1.3146e-24)
(9.96781 0.244688 0)
(10.4213 0.199079 0)
(9.51953 -0.480858 0)
(8.54867 -1.46545 0)
(7.65915 -2.60027 0)
(6.6296 -3.61566 0)
(5.48735 -4.16598 0)
(4.66232 -4.13681 0)
(4.43673 -3.61798 0)
(4.77527 -2.85824 0)
(5.41366 -2.07956 0)
(6.13938 -1.11878 0)
(6.74933 -0.66273 -5.89872e-24)
(7.19786 -0.371822 3.15063e-24)
(7.54883 -0.181728 2.74845e-24)
(7.84974 -0.0292038 2.07451e-24)
(8.01651 0.100696 -3.39267e-23)
(8.14206 0.160938 -2.24944e-23)
(8.15769 0.0994953 0)
(8.41048 0.182232 -9.84749e-24)
(8.53229 0.191491 3.55717e-27)
(8.70346 0.273494 5.09286e-25)
(8.94776 0.35116 -7.14776e-25)
(9.28564 0.491461 -3.6269e-25)
(9.76997 0.679316 -8.01071e-25)
(10.3785 1.06383 -2.09245e-23)
(10.2414 1.09229 0)
(9.53038 0.572961 0)
(8.66463 -0.038816 0)
(7.34685 -0.655138 6.78914e-28)
(5.71705 -1.21644 -6.7957e-28)
(4.41465 -1.61816 0)
(3.77297 -1.73544 0)
(3.94633 -1.44574 0)
(4.77031 -0.958042 -3.4126e-23)
(5.64906 -0.49984 -6.60372e-25)
(6.40282 -0.136834 -1.07785e-25)
(6.99049 0.102117 -2.76701e-24)
(7.42054 0.219434 3.3262e-24)
(7.75202 0.272654 3.79522e-25)
(7.95086 0.333484 3.4056e-23)
(8.1407 0.29394 0)
(8.10914 0.105639 0)
(8.34774 0.217497 -4.75696e-25)
(8.46543 0.262134 4.75612e-25)
(8.6013 0.377954 0)
(8.80113 0.512717 0)
(9.07017 0.722623 0)
(9.42612 1.01133 -5.80246e-24)
(9.9178 1.53416 2.16864e-23)
(10.1715 2.1272 0)
(9.81092 2.30655 0)
(9.04207 2.28286 0)
(7.81561 2.15298 1.61797e-28)
(6.28861 1.83608 -1.62087e-28)
(4.93919 1.31863 0)
(4.05878 0.74583 0)
(3.86365 0.363466 0)
(4.48364 0.269417 3.17784e-23)
(5.36403 0.336835 -4.87163e-23)
(6.16261 0.464486 0)
(6.84444 0.603519 0)
(7.37613 0.659109 0)
(7.75481 0.61104 2.22823e-24)
(7.97306 0.593009 -2.22805e-24)
(8.19812 0.445957 0)
(8.0483 0.102027 0)
(8.2561 0.231795 0)
(8.36747 0.305911 3.62739e-25)
(8.46265 0.444952 -4.77486e-26)
(8.60543 0.613322 -1.19535e-25)
(8.79063 0.861473 -2.19868e-24)
(9.00291 1.2021 5.80373e-24)
(9.26721 1.71877 0)
(9.51082 2.48091 0)
(9.3951 3.1665 0)
(8.82723 3.65825 0)
(7.84118 3.9542 0)
(6.63524 3.95227 0)
(5.53344 3.59815 0)
(4.74633 2.99036 0)
(4.43036 2.29833 0)
(4.74486 1.71781 0)
(5.44776 1.3636 4.86719e-23)
(6.14474 1.18146 4.37744e-23)
(6.7962 1.1297 2.13152e-25)
(7.39063 1.10745 3.37299e-25)
(7.83484 0.973168 2.4614e-24)
(8.07516 0.872326 0)
(8.30499 0.618638 0)
(7.98096 0.0889609 0)
(8.14401 0.221176 0)
(8.24471 0.313168 0)
(8.29851 0.460787 0)
(8.37915 0.638684 0)
(8.47807 0.891775 2.004e-24)
(8.56125 1.23177 0)
(8.61838 1.69008 0)
(8.66724 2.35116 0)
(8.5651 3.14423 0)
(8.16228 3.87602 -4.15942e-25)
(7.46117 4.42805 4.1599e-25)
(6.62462 4.68367 4.8693e-25)
(5.87011 4.59404 -4.87319e-25)
(5.33506 4.21 0)
(5.12187 3.61003 0)
(5.34644 2.92723 0)
(5.88754 2.34556 0)
(6.42674 1.9168 -4.67489e-23)
(6.95541 1.6555 0)
(7.53784 1.51825 0)
(8.04103 1.31658 0)
(8.30809 1.14316 0)
(8.49063 0.795756 0)
(7.9213 0.0766488 0)
(8.0401 0.202941 -1.83536e-25)
(8.1342 0.303112 1.83499e-25)
(8.15752 0.451351 0)
(8.18979 0.626079 0)
(8.22669 0.866999 0)
(8.23098 1.17634 0)
(8.17967 1.56876 0)
(8.07926 2.07898 0)
(7.89089 2.736 0)
(7.55067 3.43924 0)
(7.05587 4.06061 -2.73402e-30)
(6.50816 4.48962 2.73417e-30)
(6.043 4.67831 0)
(5.75514 4.62825 0)
(5.71346 4.33624 0)
(5.97086 3.82985 0)
(6.41597 3.24511 0)
(6.7892 2.68477 0)
(7.13481 2.22341 0)
(7.6268 1.91665 0)
(8.16035 1.62435 1.20193e-24)
(8.47271 1.37829 -1.20242e-24)
(8.63486 0.961519 0)
(7.84447 0.0425768 0)
(7.89321 0.126635 0)
(7.9589 0.20823 0)
(7.93375 0.325916 0)
(7.90129 0.464901 0)
(7.85403 0.653774 0)
(7.76078 0.891635 0)
(7.59772 1.18956 0)
(7.36088 1.55719 0)
(7.04656 2.00614 0)
(6.66349 2.51114 0)
(6.23926 3.01181 0)
(5.85035 3.45207 0)
(5.59392 3.79357 0)
(5.56733 4.0146 0)
(5.84086 4.083 0)
(6.40206 3.96431 0)
(7.07947 3.67624 0)
(7.60271 3.25215 0)
(7.93972 2.74938 0)
(8.33574 2.29796 0)
(8.80858 1.87654 0)
(9.11048 1.5361 0)
(9.06014 1.05733 0)
(7.07368 -1.61968 1.02822e-20)
(6.61598 -2.22563 -2.31386e-20)
(7.42229 -2.5287 -1.83621e-20)
(6.70092 -1.09395 -7.15449e-25)
(6.06737 -1.32247 4.72655e-20)
(6.50897 -2.12966 4.92134e-20)
(6.62899 -0.468926 0)
(6.05861 -0.3744 -2.5891e-20)
(6.04258 -1.19672 4.73499e-20)
(6.79914 0.0634014 -1.72034e-20)
(6.39788 0.306047 8.34969e-23)
(6.0948 -0.26809 0)
(7.52992 -2.66643 0)
(7.7919 -3.73573 -1.52743e-20)
(8.78278 -3.22328 9.24641e-21)
(6.55333 -2.34367 7.896e-20)
(5.90114 -3.5381 -6.59668e-23)
(7.57781 -3.79458 3.12669e-20)
(6.00153 -1.3637 -8.26441e-20)
(4.61172 -1.67895 3.80382e-20)
(5.66539 -3.39738 0)
(5.99114 -0.333254 -1.19508e-19)
(5.22233 -0.0176056 -2.72777e-21)
(4.61189 -1.38705 -2.47068e-20)
(6.32603 0.351844 -5.73679e-23)
(5.90142 0.731122 -1.08096e-20)
(5.32334 0.100581 2.22306e-22)
(6.79239 0.799061 1.07295e-20)
(6.45804 1.27784 -7.00992e-20)
(5.97979 0.805737 8.15681e-21)
(8.99481 -3.19376 -1.45902e-20)
(10.1827 -3.25634 0)
(9.91155 -2.37897 1.31604e-21)
(7.85519 -3.97271 0)
(9.36559 -6.75479 -1.51792e-20)
(10.2413 -3.4945 0)
(5.75344 -3.81494 -2.20059e-20)
(4.70363 -6.5771 -1.74599e-21)
(8.6594 -7.19056 -3.54543e-21)
(4.27606 -1.70633 1.29145e-20)
(-0.401227 -6.61543 -1.23747e-19)
(4.42004 -6.63419 -6.46467e-21)
(6.41302 1.36573 2.70212e-20)
(6.22174 2.16197 -8.01792e-20)
(5.22581 1.37592 -1.36866e-20)
(7.16239 1.54077 3.21647e-22)
(7.24174 2.19636 0)
(6.38713 2.18934 -4.92045e-21)
(9.95656 -2.25393 1.31085e-21)
(10.4266 -1.90368 -4.25843e-20)
(10.037 -1.6135 6.29517e-21)
(10.3839 -3.22342 -4.33784e-21)
(11.2005 -1.9701 -4.06193e-21)
(10.4825 -1.95556 -2.2567e-19)
(10.0101 -7.52567 2.49609e-20)
(14.9356 2.24824 -2.22088e-19)
(11.4247 -1.89036 -9.94961e-21)
(4.53167 -7.02266 -3.05532e-20)
(-3.06505 5.05876 0)
(15.1152 3.70154 2.05942e-20)
(-0.699168 -5.56108 6.78575e-20)
(-0.29265 -0.0461442 -6.69363e-21)
(-4.99542 4.21536 2.80513e-20)
(7.27847 2.3076 8.45913e-21)
(7.83594 3.124 0)
(6.78272 4.01224 3.86393e-20)
(7.93882 1.9736 0)