/*--------------------------------*- C++ -*----------------------------------*\
| =========                 |                                                 |
| \\      /  F ield         | OpenFOAM: The Open Source CFD Toolbox           |
|  \\    /   O peration     | Version:  5.x                                   |
|   \\  /    A nd           | Web:      www.OpenFOAM.org                      |
|    \\/     M anipulation  |                                                 |
\*---------------------------------------------------------------------------*/
FoamFile
{
    version     2.0;
    format      ascii;
    class       surfaceVectorField;
    location    "1";
    object      Uf;
}
// * * * * * * * * * * * * * * * * * * * * * * * * * * * * * * * * * * * * * //

dimensions      [0 1 -1 0 0 0 0];

internalField   nonuniform List<vector> 
20773
(
(8.00124 -0.0250516 -8.61138e-24)
(8.00911 -0.036112 -1.27719e-23)
(8.00107 -0.0305776 -4.97612e-23)
(8.00552 -0.0672234 -4.97597e-23)
(8.00106 -0.0380901 0)
(8.0075 -0.0750793 -2.33197e-22)
(8.0008 -0.0437482 -4.16497e-22)
(8.00564 -0.0937746 -8.37981e-24)
(8.00058 -0.0489054 -5.88686e-22)
(8.00513 -0.106999 -2.47611e-22)
(8.00022 -0.0525797 6.72809e-25)
(8.00363 -0.119133 -2.6202e-22)
(7.99973 -0.0540838 1.15863e-22)
(8.00142 -0.127841 5.17381e-22)
(7.99913 -0.0526913 1.46111e-22)
(7.99851 -0.131347 7.18741e-22)
(7.99849 -0.047819 1.91671e-22)
(7.99499 -0.127867 -1.92986e-22)
(7.99791 -0.0392305 0)
(7.99124 -0.115956 0)
(7.99752 -0.0273248 1.19964e-22)
(7.9879 -0.0951932 0)
(7.99741 -0.013185 3.66586e-22)
(7.98566 -0.0667843 -3.01032e-22)
(7.99755 0.00155539 2.46628e-22)
(7.98507 -0.0337833 -6.25197e-22)
(7.99793 0.0153717 0)
(7.98602 -2.62027e-05 2.49933e-22)
(7.99846 0.0267243 2.38911e-22)
(7.98851 0.0306327 0)
(7.99899 0.0349217 2.09056e-22)
(7.99169 0.0549323 2.38818e-22)
(7.99951 0.0400352 -7.17708e-22)
(7.99481 0.0719514 4.5725e-22)
(7.99999 0.0421267 -3.94395e-23)
(7.99785 0.081895 -1.1276e-21)
(8.00038 0.041659 8.28227e-22)
(8.00043 0.0852893 -2.29178e-22)
(8.00066 0.0390578 2.01756e-22)
(8.00258 0.0830439 -1.74001e-22)
(8.00099 0.0351198 0)
(8.00392 0.0774697 -8.32576e-24)
(8.00105 0.0288999 -8.83826e-23)
(8.00621 0.0648802 -7.55416e-22)
(8.00128 0.0239394 1.22545e-22)
(8.00495 0.0599728 -8.838e-23)
(8.00866 0.032547 1.89032e-22)
(8.01589 -0.0834594 1.63721e-24)
(8.03673 -0.0776106 5.38147e-23)
(8.01467 -0.107821 -2.33187e-22)
(8.02984 -0.142794 0)
(8.01445 -0.133246 -3.84001e-22)
(8.03288 -0.161128 -2.33125e-22)
(8.01253 -0.156437 2.6406e-22)
(8.02876 -0.203755 -2.76864e-22)
(8.01045 -0.178037 2.57087e-22)
(8.02663 -0.235142 8.33478e-22)
(8.00663 -0.195537 2.23759e-22)
(8.02099 -0.266229 -1.78739e-21)
(8.00121 -0.206611 9.51914e-22)
(8.01228 -0.29085 -1.99429e-22)
(7.99422 -0.208323 4.49061e-22)
(7.99992 -0.305481 -3.9631e-23)
(7.98611 -0.197915 -3.84381e-22)
(7.98415 -0.30559 1.23804e-21)
(7.97801 -0.173655 0)
(7.96644 -0.287005 9.45927e-22)
(7.97143 -0.135927 -3.65258e-22)
(7.94955 -0.247691 -9.66495e-22)
(7.96784 -0.0878489 -1.11416e-21)
(7.93692 -0.189247 -6.71777e-23)
(7.96797 -0.0350834 -4.90805e-22)
(7.93168 -0.117924 9.04552e-23)
(7.97157 0.0158622 2.49833e-22)
(7.93451 -0.0426252 2.49716e-22)
(7.97772 0.0599338 0)
(7.94398 0.0276958 -3.10489e-21)
(7.98476 0.0931832 4.64959e-22)
(7.95809 0.0849214 1.01291e-21)
(7.99163 0.115219 -8.81599e-23)
(7.97252 0.12617 4.64816e-22)
(7.9979 0.126276 -1.42166e-21)
(7.98661 0.151788 4.11366e-22)
(8.00314 0.127853 -1.29402e-21)
(7.99874 0.162935 -8.79725e-22)
(8.00705 0.121524 -4.22306e-22)
(8.00883 0.16125 4.0864e-22)
(8.01059 0.10961 -8.96279e-22)
(8.01579 0.152472 1.13471e-21)
(8.0122 0.0924344 -7.55384e-22)
(8.02335 0.127973 -3.98575e-22)
(8.0145 0.0734364 -1.3006e-24)
(8.02392 0.118979 0)
(8.03269 0.0658357 -8.91612e-23)
(8.05057 -0.144932 4.52023e-23)
(8.08269 -0.119407 -4.20003e-23)
(8.0485 -0.189707 0)
(8.07453 -0.21622 2.6484e-22)
(8.04797 -0.235795 -2.23102e-22)
(8.07888 -0.245727 4.27401e-22)
(8.04415 -0.280699 3.38096e-22)
(8.07355 -0.31405 2.31468e-22)
(8.03886 -0.32435 -1.11647e-21)
(8.07013 -0.366201 5.60825e-22)
(8.02875 -0.362865 -2.5818e-21)
(8.05928 -0.421296 -1.35469e-21)
(8.01323 -0.391682 -1.46757e-21)
(8.04074 -0.46855 1.74769e-21)
(7.99163 -0.405391 5.87063e-22)
(8.01311 -0.502116 -1.46703e-21)
(7.96527 -0.397699 2.87434e-21)
(7.97574 -0.514124 3.28019e-21)
(7.93742 -0.363925 -2.08685e-23)
(7.93173 -0.495965 -1.58064e-21)
(7.91317 -0.30329 -7.20646e-22)
(7.88781 -0.442181 -9.04047e-22)
(7.8981 -0.220129 1.02297e-21)
(7.85258 -0.35373 7.83764e-22)
(7.89548 -0.124792 7.77683e-22)
(7.8352 -0.240639 -3.91527e-22)
(7.9047 -0.0298739 -3.10314e-21)
(7.8386 -0.118717 -1.07617e-21)
(7.92289 0.0539558 -1.98357e-21)
(7.85934 -0.00327569 2.2288e-21)
(7.94511 0.119375 1.01264e-21)
(7.89207 0.0915744 -1.10061e-21)
(7.96745 0.164666 9.156e-22)
(7.92679 0.160775 -9.59475e-22)
(7.98787 0.189942 9.15917e-22)
(7.96104 0.20499 9.71114e-22)
(8.00507 0.197942 8.22072e-22)
(7.99054 0.226386 2.65502e-21)
(8.01822 0.191426 1.99016e-21)
(8.01522 0.227188 1.4149e-22)
(8.02903 0.174592 1.53968e-21)
(8.03253 0.21753 -1.02409e-21)
(8.03541 0.148939 3.71599e-22)
(8.04894 0.182901 1.11794e-21)
(8.04212 0.118666 -8.44854e-23)
(8.05413 0.171547 -1.72929e-22)
(8.06949 0.0972223 -2.51935e-22)
(8.10544 -0.200881 -5.75859e-23)
(8.14405 -0.157888 -8.71832e-23)
(8.10419 -0.263822 6.92159e-22)
(8.1373 -0.280521 2.26415e-22)
(8.10443 -0.329478 1.41136e-21)
(8.14438 -0.320156 8.20215e-23)
(8.10019 -0.396529 4.73359e-22)
(8.14041 -0.41267 1.67635e-22)
(8.09209 -0.464207 5.83981e-22)
(8.13759 -0.485942 6.39318e-23)
(8.07339 -0.527835 3.21758e-21)
(8.12259 -0.568989 -1.10878e-21)
(8.04301 -0.581102 2.12664e-21)
(8.09353 -0.643113 4.06112e-21)
(7.99959 -0.614217 9.66004e-22)
(8.04549 -0.703558 -2.2591e-21)
(7.94383 -0.616747 -1.04226e-21)
(7.97721 -0.735296 2.30327e-21)
(7.88241 -0.578577 -2.23214e-21)
(7.89215 -0.723222 -2.18258e-21)
(7.826 -0.496292 5.57491e-22)
(7.80384 -0.656368 3.12085e-22)
(7.7877 -0.375325 -5.43314e-22)
(7.72976 -0.532736 -1.73586e-21)
(7.77678 -0.23305 -2.15749e-21)
(7.69112 -0.367956 -5.19693e-22)
(7.79284 -0.0903244 4.48731e-21)
(7.69429 -0.189987 9.67059e-22)
(7.82933 0.0357274 3.25479e-21)
(7.732 -0.0231473 4.50025e-21)
(7.87539 0.134575 -3.07089e-21)
(7.79225 0.111128 -8.86562e-22)
(7.92226 0.2036 -6.60649e-22)
(7.85708 0.206887 -9.58556e-22)
(7.96567 0.24295 2.83528e-21)
(7.92121 0.266533 -4.12612e-22)
(8.00257 0.257646 1.83229e-21)
(7.97553 0.294267 6.60669e-22)
(8.03092 0.251451 -3.10698e-21)
(8.0212 0.293998 -7.61543e-22)
(8.05333 0.230698 -1.08792e-21)
(8.05312 0.281881 -9.08575e-22)
(8.06786 0.198247 5.73636e-22)
(8.08127 0.236169 1.47316e-21)
(8.08122 0.159331 -5.54083e-22)
(8.09292 0.222531 -1.91973e-22)
(8.1166 0.129072 -1.67412e-22)
(8.17535 -0.249318 -1.89916e-23)
(8.21726 -0.193691 -5.62521e-23)
(8.1774 -0.326951 -3.64225e-22)
(8.21466 -0.3368 -1.79595e-22)
(8.18099 -0.409712 -7.30697e-22)
(8.22688 -0.385383 -5.8432e-23)
(8.17956 -0.4978 -7.37038e-22)
(8.22821 -0.500257 -1.05743e-22)
(8.17079 -0.591318 -1.61522e-21)
(8.23079 -0.595514 6.38937e-23)
(8.14776 -0.684042 -1.35442e-21)
(8.21486 -0.707027 -1.94709e-21)
(8.10282 -0.767473 -1.37194e-21)
(8.18695 -0.805203 1.52235e-21)
(8.16563 -0.831587 -4.06058e-21)
(8.02848 -0.828622 -2.37814e-21)
(8.11773 -0.901026 6.99522e-22)
(8.09341 -0.922467 -1.04234e-21)
(7.92742 -0.848212 3.27883e-22)
(8.01117 -0.968537 -6.28961e-23)
(7.97917 -0.977179 2.34147e-21)
(7.80941 -0.80773 7.15275e-22)
(7.86964 -0.979832 -1.34318e-22)
(7.82917 -0.967544 4.73725e-21)
(7.69918 -0.698885 -9.69889e-22)
(7.71381 -0.908898 4.54436e-21)
(7.67058 -0.869692 6.39727e-22)
(7.62384 -0.526343 -1.73673e-21)
(7.56428 -0.746911 1.11086e-22)
(7.54383 -0.688338 -4.37698e-21)
(7.59969 -0.32195 2.53247e-21)
(7.4866 -0.515942 -2.70084e-22)
(7.4806 -0.448736 -6.79363e-21)
(7.62676 -0.120193 2.05422e-21)
(7.48508 -0.263471 5.00567e-21)
(7.49453 -0.198846 -5.90217e-21)
(7.69006 0.0542881 -4.89803e-24)
(7.54317 -0.0308457 6.48035e-24)
(7.56749 0.022594 -9.42133e-21)
(7.77186 0.18528 4.42896e-22)
(7.63922 0.150197 5.68919e-21)
(7.68007 0.191756 5.47268e-22)
(7.85775 0.273202 -4.68016e-22)
(7.75143 0.280112 0)
(7.78456 0.305063 2.65609e-21)
(7.93435 0.319434 -3.06243e-21)
(7.86181 0.356319 -1.62421e-21)
(7.88655 0.370728 5.03609e-21)
(7.9975 0.332979 -2.32316e-21)
(7.96142 0.392874 -2.55714e-21)
(8.04604 0.321465 1.32003e-21)
(8.03234 0.384329 -1.49746e-21)
(8.08295 0.293121 2.81013e-21)
(8.08117 0.362785 1.07858e-21)
(8.1075 0.251668 7.41393e-22)
(8.12249 0.300689 7.26689e-22)
(8.12892 0.20325 1.43856e-23)
(8.14111 0.282252 2.90375e-22)
(8.17416 0.166963 0)
(8.25631 -0.294087 -2.14785e-22)
(8.29996 -0.229152 -4.71137e-23)
(8.26443 -0.384222 1.86743e-22)
(8.30438 -0.389271 6.07035e-23)
(8.27514 -0.48287 7.42052e-22)
(8.32512 -0.446518 6.36914e-22)
(8.2816 -0.592042 3.96811e-22)
(8.33696 -0.582605 1.04754e-22)
(8.27951 -0.714064 -2.56092e-22)
(8.35233 -0.700363 -2.05528e-22)
(8.23766 -0.814546 5.58715e-22)
(8.3453 -0.830065 3.4064e-21)
(8.27712 -0.871685 9.85687e-22)
(8.34118 -0.868112 -5.35656e-21)
(8.20045 -0.86557 -2.4019e-21)
(8.2376 -0.881105 3.55993e-21)
(8.12432 -0.970191 1.30415e-21)
(8.17522 -1.00263 1.30452e-21)
(8.16783 -0.912057 -1.15767e-21)
(8.06806 -0.999325 0)
(8.00246 -1.04157 1.80311e-21)
(8.05239 -1.09674 -3.16675e-21)
(7.9227 -1.03981 2.79745e-21)
(7.83744 -1.04662 3.89215e-21)
(7.87501 -1.12857 1.93043e-21)
(7.74408 -1.00133 5.07388e-21)
(7.65437 -0.955465 3.79551e-21)
(7.66616 -1.05828 9.1414e-22)
(7.57149 -0.860623 2.53065e-21)
(7.50365 -0.768376 1.40597e-22)
(7.47012 -0.87112 1.72994e-21)
(7.42539 -0.509249 -5.18135e-21)
(7.35622 -0.593658 -5.49962e-22)
(7.45444 -0.637691 -2.03498e-21)
(7.41947 -0.37235 -2.48224e-21)
(7.43208 -0.235105 -3.73435e-21)
(7.3461 -0.289935 6.39829e-21)
(7.46366 -0.112736 -5.97918e-21)
(7.50758 0.00695161 -7.05443e-21)
(7.42208 -0.0153646 5.07617e-21)
(7.55993 0.101179 -3.9548e-21)
(7.61878 0.193296 4.80179e-21)
(7.54607 0.192673 -1.2623e-21)
(7.68078 0.259874 1.20502e-21)
(7.74378 0.32304 1.98913e-21)
(7.68751 0.339355 0)
(7.80366 0.356351 1.68439e-21)
(7.85939 0.397517 4.04415e-21)
(7.82012 0.420276 -3.83956e-21)
(8.00177 0.447288 -1.52053e-21)
(7.93849 0.538168 -2.25673e-21)
(7.91205 0.418079 6.24459e-21)
(7.89904 0.469517 -5.29734e-21)
(7.97539 0.537022 4.64542e-21)
(8.07106 0.42135 -2.29982e-21)
(8.05762 0.509016 7.50352e-23)
(8.12329 0.376991 -7.42063e-22)
(8.12502 0.470326 -2.85947e-21)
(8.1577 0.320832 3.25685e-22)
(8.17824 0.384219 6.60394e-22)
(8.18722 0.25877 3.25886e-22)
(8.20279 0.356898 4.39218e-23)
(8.24472 0.214566 2.81673e-22)
(8.34723 -0.337995 -3.8099e-22)
(8.39058 -0.264187 -8.95943e-23)
(8.36468 -0.439749 5.11041e-22)
(8.40554 -0.437964 3.19321e-22)
(8.38709 -0.553701 6.47187e-22)
(8.43849 -0.50381 9.74741e-23)
(8.40912 -0.68434 -4.97491e-22)
(8.46701 -0.659059 -6.16022e-22)
(8.39745 -0.814892 5.25707e-21)
(8.50557 -0.801569 1.5349e-22)
(8.45067 -0.861679 -8.01435e-22)
(8.37417 -0.886836 1.62598e-22)
(8.4169 -0.88395 3.24202e-21)
(8.33323 -1.04179 2.14529e-21)
(8.40179 -1.04735 1.56649e-21)
(8.31826 -0.96059 1.69495e-21)
(8.3588 -0.957799 -1.7764e-21)
(8.23967 -1.20973 -4.12418e-21)
(8.32499 -1.23793 -2.56568e-21)
(8.24392 -1.11473 -2.56769e-21)
(8.29585 -1.12771 -1.40175e-21)
(8.16257 -1.28357 1.63726e-21)
(8.06446 -1.34374 4.99597e-21)
(8.15904 -1.41093 3.93062e-21)
(8.10067 -1.24277 -5.60711e-22)
(7.94225 -1.38252 -3.62459e-21)
(7.80073 -1.39071 -7.96712e-21)
(7.88496 -1.51251 -7.32915e-21)
(7.87949 -1.30202 -5.68873e-21)
(7.64447 -1.35831 6.39842e-21)
(7.48549 -1.28644 8.29752e-21)
(7.60545 -1.23493 6.76903e-21)
(7.56133 -1.45931 -1.0758e-21)
(7.49879 -1.43764 1.33505e-20)
(7.33632 -1.16205 -2.07596e-21)
(7.2149 -1.00142 -5.85915e-22)
(7.3462 -1.0102 -9.60323e-22)
(7.19971 -1.20276 4.50806e-21)
(7.1631 -1.15024 -7.94567e-21)
(7.19413 -0.664849 -1.82583e-21)
(7.12871 -0.808213 -1.06695e-21)
(7.08531 -0.604785 -3.95356e-22)
(6.99207 -0.775753 -1.06558e-21)
(6.98124 -0.711964 1.80271e-21)
(7.18301 -0.290281 -4.58974e-22)
(7.08189 -0.396412 -2.87116e-21)
(7.11326 -0.204072 2.57598e-21)
(6.98098 -0.310345 -6.3627e-21)
(6.99371 -0.25289 -9.65872e-21)
(7.28486 0.0355194 2.60817e-21)
(7.17481 -0.0256156 3.92272e-21)
(7.25668 0.126496 5.36857e-23)
(7.12997 0.112651 -4.27891e-21)
(7.44422 0.272972 -1.20669e-20)
(7.34696 0.257581 -5.3369e-21)
(7.44735 0.361364 -2.82369e-21)
(7.33848 0.382253 7.78821e-21)
(7.54613 0.443972 4.565e-21)
(7.64295 0.502894 2.09547e-21)
(7.56124 0.545405 1.14379e-21)
(7.62148 0.429186 0)
(7.73387 0.54249 2.09559e-21)
(7.81555 0.565006 0)
(7.76344 0.616822 0)
(7.78684 0.507389 -1.95835e-21)
(7.89181 0.575918 -1.71025e-21)
(7.95862 0.583509 3.03652e-21)
(7.9303 0.630602 1.77965e-21)
(8.11591 0.553602 1.12558e-21)
(8.10955 0.664442 2.60977e-21)
(8.02001 0.575204 8.00373e-21)
(8.02836 0.638017 -1.57765e-21)
(8.18239 0.484861 -8.2236e-22)
(8.19295 0.600489 -2.11693e-21)
(8.22468 0.408022 3.78866e-22)
(8.25442 0.483609 6.60172e-22)
(8.26077 0.327476 6.67021e-22)
(8.28273 0.443732 -5.35292e-22)
(8.33097 0.270679 2.81628e-22)
(8.44734 -0.378085 1.19482e-22)
(8.4868 -0.295084 8.77292e-24)
(8.47794 -0.48977 -1.08146e-21)
(8.51643 -0.476659 -1.00976e-22)
(8.51719 -0.617357 -5.18314e-22)
(8.56529 -0.549741 -1.94256e-22)
(8.56177 -0.767996 1.79892e-21)
(8.61686 -0.719732 -5.9449e-22)
(8.56381 -0.931782 6.50527e-22)
(8.68321 -0.884796 7.22971e-22)
(8.63338 -0.9613 -1.95033e-22)
(8.55132 -1.02113 2.06333e-21)
(8.5998 -1.00367 -4.40416e-22)
(8.51081 -0.94558 -1.37252e-21)
(8.53897 -1.24668 -2.64119e-21)
(8.61656 -1.22884 -2.74534e-21)
(8.49965 -1.13833 -2.48194e-21)
(8.55237 -1.12927 -1.78358e-21)
(8.43687 -1.3585 1.3921e-21)
(8.48936 -1.35132 2.00582e-21)
(8.45386 -1.41126 2.16709e-21)
(8.49644 -1.41437 -3.1805e-22)
(8.26717 -1.58644 4.45158e-22)
(8.3269 -1.58904 2.31255e-21)
(8.27071 -1.65492 -1.89849e-21)
(8.33183 -1.67889 -1.59594e-21)
(7.93696 -1.75884 -5.32659e-22)
(8.01737 -1.79155 0)
(7.91507 -1.8406 4.01913e-21)
(7.98393 -1.89858 3.76495e-21)
(7.54292 -1.83516 3.14873e-22)
(7.50013 -1.74927 9.18157e-21)
(7.40818 -1.79993 -5.09255e-21)
(7.46195 -1.91604 -4.76312e-21)
(7.01939 -1.56696 2.22985e-21)
(7.02151 -1.44635 -2.85209e-21)
(6.90981 -1.4503 -1.43505e-21)
(6.90072 -1.58946 5.82757e-21)
(6.68208 -1.01335 2.17115e-27)
(6.73747 -0.903095 3.36665e-25)
(6.6495 -0.857412 1.51571e-21)
(6.57836 -0.964593 -3.1129e-21)
(6.64496 -0.389937 -8.67555e-21)
(6.72885 -0.316784 5.58585e-21)
(6.68521 -0.250073 -2.9565e-23)
(6.58637 -0.302125 -5.66853e-21)
(6.83244 0.126631 -3.07177e-21)
(6.92346 0.181205 6.23006e-21)
(6.8985 0.234738 -2.26086e-24)
(6.81352 0.218948 5.52709e-21)
(7.11003 0.473195 -2.68819e-21)
(7.19851 0.495829 1.33112e-20)
(7.18998 0.548783 -5.11795e-21)
(7.12147 0.558836 2.52822e-21)
(7.48292 0.674411 2.96922e-21)
(7.41556 0.679871 -2.24759e-23)
(7.48732 0.723069 4.11277e-21)
(7.43884 0.746314 -5.5388e-21)
(7.68633 0.779125 -1.78959e-21)
(7.79981 0.811962 1.13894e-21)
(7.7406 0.888707 1.2779e-21)
(7.74742 0.745037 1.38747e-21)
(7.67897 0.833937 3.72074e-21)
(7.89912 0.800836 -5.7317e-23)
(7.9828 0.780768 8.31746e-22)
(7.95416 0.852412 1.61555e-21)
(7.93502 0.736676 3.48969e-21)
(8.19095 0.706151 0)
(8.20168 0.836781 -1.52785e-21)
(8.06518 0.763318 1.11032e-21)
(8.08923 0.836515 1.04666e-21)
(8.26684 0.60685 0)
(8.29106 0.738723 -5.19322e-22)
(8.31328 0.505278 -2.53383e-22)
(8.35501 0.588045 0)
(8.35281 0.403634 -2.53589e-22)
(8.38347 0.533801 -1.94633e-22)
(8.43368 0.330633 2.22435e-22)
(8.55375 -0.407167 4.33447e-22)
(8.58437 -0.316829 5.22276e-23)
(8.60149 -0.524461 -1.70723e-22)
(8.63276 -0.496851 -7.71748e-24)
(8.66276 -0.660987 -9.30498e-23)
(8.70082 -0.573099 1.0417e-22)
(8.73724 -0.827824 2.71327e-22)
(8.78268 -0.749978 -7.05737e-22)
(8.77598 -1.02311 -1.75252e-21)
(8.88788 -0.924427 -6.54879e-22)
(8.86074 -1.04415 3.30332e-22)
(8.72089 -1.05537 -1.96577e-22)
(8.7859 -1.13783 -2.8865e-21)
(8.83519 -1.09433 4.63434e-22)
(8.75275 -1.31164 2.99486e-22)
(8.82904 -1.43095 -9.08325e-22)
(8.90763 -1.37802 5.69793e-23)
(8.8116 -1.2756 -1.9217e-21)
(8.7303 -1.60369 3.40218e-21)
(8.79119 -1.59156 7.28032e-22)
(8.75913 -1.6778 3.45618e-21)
(8.81615 -1.66072 -1.08398e-21)
(8.60116 -1.97411 4.421e-21)
(8.6361 -1.97286 4.49475e-21)
(8.60599 -2.02674 6.46761e-23)
(8.65415 -2.02646 2.86199e-22)
(8.20277 -2.39703 -3.25087e-21)
(8.25617 -2.41915 6.31919e-21)
(8.17953 -2.46735 1.29623e-20)
(8.24952 -2.49484 -2.82763e-21)
(7.41685 -2.5992 4.20527e-21)
(7.47086 -2.66842 1.3526e-20)
(7.34647 -2.66398 1.33908e-20)
(7.40904 -2.74449 2.28177e-20)
(6.46715 -2.20583 -4.51608e-19)
(6.50048 -2.28954 -3.25901e-19)
(6.40318 -2.18526 -1.10132e-18)
(5.98797 -1.29519 -6.20662e-20)
(5.96186 -1.15806 -6.24726e-20)
(5.93644 -1.23669 -1.71673e-20)
(6.04516 -0.251358 3.65034e-19)
(6.0043 -0.29045 2.09493e-19)
(6.03496 -0.201219 5.52422e-19)
(6.35053 0.385986 -1.1758e-20)
(6.41012 0.400585 1.17845e-20)
(6.40979 0.45428 -2.64096e-20)
(6.33973 0.446378 -1.17362e-20)
(6.8171 0.818394 -5.30267e-21)
(6.86146 0.811389 -2.13526e-20)
(6.87492 0.856372 -3.14855e-20)
(6.82154 0.866451 5.44143e-21)
(7.28664 1.03257 -4.66949e-21)
(7.31559 1.01315 9.05607e-21)
(7.33447 1.04611 1.34168e-20)
(7.30109 1.06551 -8.98885e-21)
(7.75096 1.0462 -9.22092e-22)
(7.6724 1.10801 -3.27613e-21)
(7.83315 1.1103 7.44694e-22)
(7.77895 1.21593 -9.26213e-22)
(7.67521 1.17366 -2.4447e-21)
(7.96029 1.06486 -2.97562e-21)
(7.99175 0.975255 -2.91432e-21)
(8.06217 1.01008 -5.03051e-22)
(8.04507 1.10202 -3.23413e-21)
(8.30378 0.861265 -2.04693e-21)
(8.33929 1.00674 1.63257e-21)
(8.15937 0.962813 8.86698e-21)
(8.20388 1.03964 -1.42023e-21)
(8.37992 0.728123 -5.19441e-22)
(8.42255 0.869418 -1.77462e-21)
(8.42496 0.601031 3.06929e-23)
(8.48074 0.686615 2.96804e-22)
(8.46339 0.479053 1.05092e-21)
(8.50421 0.618159 4.39256e-22)
(8.551 0.389762 2.99038e-22)
(8.66075 -0.418703 4.22185e-23)
(8.67735 -0.326274 6.70108e-24)
(8.72893 -0.534203 1.46375e-22)
(8.74718 -0.493238 5.71434e-23)
(8.81666 -0.670994 1.37136e-21)
(8.83647 -0.56584 -1.12186e-22)
(8.92828 -0.841881 -3.66666e-22)
(8.95233 -0.738184 -2.07778e-22)
(9.01988 -1.05844 -2.08628e-21)
(9.10241 -0.904627 1.66451e-23)
(9.11115 -1.05727 -5.59358e-23)
(8.96893 -1.11746 3.92615e-22)
(9.06398 -1.19377 -2.10984e-21)
(9.10374 -1.11997 9.52981e-23)
(9.07726 -1.41982 4.0331e-22)
(9.1965 -1.53208 -7.99301e-22)
(9.25773 -1.43065 3.67882e-22)
(9.1293 -1.351 -7.29584e-22)
(9.15295 -1.78522 5.65566e-22)
(9.21642 -1.73893 5.97443e-22)
(9.21913 -1.85995 2.321e-22)
(9.27347 -1.8043 7.9645e-22)
(9.15563 -2.3415 -8.60651e-22)
(9.20511 -2.31202 4.30633e-21)
(9.19561 -2.40588 1.29982e-21)
(9.24775 -2.37109 1.09312e-21)
(8.84967 -3.28485 8.94104e-21)
(8.95071 -3.26455 -1.41107e-21)
(8.84468 -3.40075 3.32016e-21)
(8.99684 -3.3626 3.3199e-21)
(7.60575 -3.91929 1.92808e-20)
(7.74183 -4.0087 3.60095e-21)
(7.50562 -4.06999 1.95181e-20)
(7.66005 -4.18298 -6.56437e-21)
(5.5754 -3.53031 2.27056e-20)
(5.61996 -3.74208 1.18374e-20)
(5.35748 -3.57576 -1.0517e-21)
(5.38716 -3.81582 2.28824e-20)
(4.45173 -1.37628 -9.18667e-21)
(4.28557 -1.53289 9.33109e-21)
(4.33018 -1.20707 -1.75228e-20)
(4.10835 -1.33969 -1.74946e-20)
(5.26573 0.146264 8.11423e-21)
(5.15196 0.135458 1.07536e-20)
(5.26149 0.243025 -1.06324e-20)
(5.15401 0.244878 8.08202e-21)
(5.94324 0.842269 -6.68856e-21)
(5.86375 0.84099 -5.35927e-21)
(5.9467 0.916079 6.31319e-21)
(5.86525 0.916318 -2.18578e-20)
(6.45702 1.38701 3.16786e-21)
(6.52636 1.36474 1.1516e-20)
(6.55392 1.42652 -2.70916e-22)
(6.48269 1.45874 -6.62532e-20)
(7.2028 1.54089 -4.28119e-21)
(7.24438 1.50487 4.44326e-21)
(7.27978 1.54035 -4.39545e-21)
(7.24325 1.57962 -4.39361e-21)
(7.74883 1.4982 4.98945e-21)
(7.83352 1.39818 0)
(7.95519 1.44393 1.39546e-21)
(7.92476 1.58946 1.0119e-21)
(7.7754 1.58029 0)
(8.10168 1.34327 -1.28168e-21)
(8.12004 1.22919 -1.18673e-21)
(8.21116 1.24314 -4.4412e-21)
(8.21804 1.35439 -2.52421e-21)
(8.45739 1.00391 3.92927e-21)
(8.5267 1.15804 3.08976e-21)
(8.31243 1.15782 -3.47469e-21)
(8.38216 1.23118 6.81441e-22)
(8.52188 0.83763 7.396e-22)
(8.58669 0.982134 -2.10104e-21)
(8.55818 0.687142 -7.40198e-22)
(8.62947 0.772694 5.78665e-22)
(8.58983 0.548076 4.85299e-22)
(8.64174 0.691752 4.80976e-22)
(8.67925 0.445627 -1.04297e-22)
(8.76083 -0.410609 2.16529e-23)
(8.75927 -0.323495 1.90677e-23)
(8.85092 -0.515435 3.31032e-22)
(8.85091 -0.466274 2.93063e-23)
(8.96681 -0.641429 -3.64906e-23)
(8.96124 -0.527635 -1.40157e-22)
(9.1185 -0.800909 1.75322e-22)
(9.1104 -0.683027 3.35587e-23)
(9.2711 -1.02148 6.67778e-23)
(9.3037 -0.824547 7.62244e-22)
(9.35672 -0.986581 -4.72343e-22)
(9.23713 -1.10089 -4.01978e-23)
(9.35519 -1.15631 2.59615e-22)
(9.37127 -1.06067 2.93931e-23)
(9.436 -1.40651 1.51779e-22)
(9.61522 -1.34987 3.18595e-22)
(9.4662 -1.31188 3.6705e-22)
(9.62664 -1.47229 2.38308e-21)
(9.56357 -1.51185 1.63064e-21)
(9.64971 -1.77821 4.00086e-22)
(9.67402 -1.70868 4.51835e-22)
(9.74822 -1.82908 -3.54089e-22)
(9.76996 -1.74532 1.11167e-21)
(9.96139 -2.36217 4.37406e-22)
(9.98419 -2.29997 4.397e-22)
(10.0465 -2.39977 -8.87668e-21)
(10.06 -2.32312 1.03952e-21)
(10.3653 -3.47569 2.14763e-21)
(10.436 -3.34378 6.501e-22)
(10.542 -3.60218 -4.0601e-21)
(10.6202 -3.41528 -1.46261e-21)
(8.75373 -7.66787 -1.10388e-20)
(9.4938 -7.86622 -7.05633e-21)
(8.42339 -8.24341 -9.60837e-21)
(9.29526 -8.72272 -4.70471e-21)
(8.86157 -8.82335 4.93538e-21)
(4.46152 -6.86338 -1.23687e-20)
(4.50354 -7.0346 -2.51033e-20)
(4.33981 -7.12576 -8.54705e-21)
(4.56469 -7.42256 -3.73108e-21)
(-0.984186 -5.49941 9.10614e-21)
(-1.16808 -6.05098 -2.25601e-20)
(-1.3706 -5.46177 -2.08029e-20)
(-1.20949 -4.93221 -2.78338e-20)
(4.92055 1.32238 -9.09543e-22)
(4.76435 1.203 -2.6179e-22)
(5.02992 1.37303 5.01191e-23)
(4.7499 1.0907 -1.28087e-21)
(5.14717 1.3914 5.6673e-22)
(5.06356 1.32233 6.37367e-21)
(5.08657 1.50333 7.64682e-21)
(4.95954 1.40283 -9.59494e-21)
(6.38021 2.27369 7.40455e-21)
(6.27681 2.34767 4.23713e-20)
(6.45467 2.35801 5.32051e-22)
(6.36356 2.45246 8.36811e-22)
(7.33312 2.28553 4.42559e-21)
(7.36745 2.21159 -7.50468e-21)
(7.4367 2.23897 2.06506e-22)
(7.41168 2.31564 3.63948e-21)
(7.99297 1.92172 -2.69059e-21)
(8.03561 1.81391 -4.48677e-21)
(8.09415 1.85062 -2.81004e-21)
(8.10441 1.9304 -1.6654e-21)
(8.3575 1.61272 8.21466e-22)
(8.34189 1.4723 2.10777e-21)
(8.44837 1.45715 2.43504e-21)
(8.49463 1.57759 7.61672e-22)
(8.64959 1.12418 1.82469e-21)
(8.75347 1.26964 -5.63883e-22)
(8.53239 1.32773 1.05018e-21)
(8.63081 1.38174 3.82809e-22)
(8.69007 0.929192 -6.14471e-22)
(8.77911 1.07014 -7.32449e-22)
(8.70938 0.760179 1.9083e-22)
(8.79641 0.84273 3.66791e-22)
(8.72806 0.608733 -4.55658e-22)
(8.79139 0.752542 2.38194e-23)
(8.81393 0.497502 -1.87644e-22)
(8.84652 -0.38495 3.25954e-23)
(8.82407 -0.310515 2.89078e-24)
(8.95759 -0.471756 2.93765e-25)
(8.93671 -0.420504 -4.50585e-23)
(9.09952 -0.576718 1.65763e-22)
(9.06499 -0.464717 -1.40559e-23)
(9.28773 -0.70972 -1.42573e-22)
(9.24187 -0.593087 3.07586e-22)
(9.49801 -0.910098 5.03172e-22)
(9.47086 -0.69774 -4.01826e-22)
(9.56751 -0.848209 1.82377e-22)
(9.48974 -0.999991 4.13938e-22)
(9.62009 -1.02621 7.38646e-22)
(9.6049 -0.924004 5.97912e-22)
(9.77801 -1.26727 -2.596e-22)
(9.92492 -1.16351 0)
(9.77238 -1.15702 -5.27468e-22)
(9.9665 -1.28575 0)
(9.91248 -1.32563 -2.14383e-21)
(10.0839 -1.58148 4.05413e-21)
(10.0812 -1.50513 1.61007e-21)
(10.1821 -1.5975 -2.35502e-22)
(10.1757 -1.51672 1.49857e-21)
(10.499 -1.92087 1.65782e-20)
(10.4957 -1.87604 1.53029e-19)
(10.5279 -1.84379 2.19007e-19)
(11.3583 -1.78987 -7.66763e-21)
(11.2144 -1.75389 -2.68395e-21)
(11.41 -1.60629 4.22078e-21)
(11.2186 -1.62064 -5.40486e-21)
(14.5117 3.91932 2.35209e-20)
(13.4942 3.45163 -4.85768e-21)
(13.3286 5.44335 7.30958e-21)
(12.7054 4.17412 1.9338e-20)
(14.9122 4.8136 8.56456e-20)
(-4.39787 4.97414 -1.71224e-20)
(-2.95116 6.53419 -3.40741e-20)
(-3.29806 4.75442 -2.50388e-20)
(-2.59148 5.58827 -2.96911e-21)
(0.123488 -0.0996915 -6.65325e-21)
(0.0803124 0.157784 -1.54143e-21)
(0.38856 -0.0479081 -6.64196e-21)
(0.33106 0.170948 -1.02463e-20)
(2.56668 -1.81724 4.65886e-21)
(2.65705 -1.53401 -1.09303e-20)
(2.79299 -1.94241 5.03986e-21)
(2.97543 -1.55121 9.65637e-22)
(-6.69904 -3.02347 1.47543e-17)
(-6.59088 -3.12294 1.41316e-17)
(-6.75099 -2.89208 9.47227e-18)
(6.89032 4.12493 2.16507e-20)
(6.8785 4.36131 -7.90463e-21)
(7.08672 4.1266 -8.14556e-22)
(7.10008 4.32673 -1.08159e-21)
(7.99224 3.05604 4.99546e-22)
(8.00242 3.15845 1.042e-19)
(8.1031 3.03403 3.39079e-22)
(8.12591 3.15898 -1.01433e-20)
(8.52161 2.33353 2.0265e-21)
(8.47557 2.20734 1.38977e-21)
(8.57691 2.17001 1.7395e-21)
(8.63557 2.27596 8.34556e-22)
(8.7373 1.81204 -6.50234e-22)
(8.66996 1.66419 -1.32276e-21)
(8.77679 1.61602 -5.13707e-22)
(8.86265 1.72358 -4.41478e-22)
(8.87394 1.21071 -3.12853e-22)
(9.01133 1.3265 -3.45738e-22)
(8.81911 1.45878 4.16033e-22)
(8.93102 1.48696 -7.28484e-22)
(8.87834 0.997486 1.20845e-22)
(8.98949 1.12689 0)
(8.87317 0.818169 4.25558e-22)
(8.97346 0.892726 9.21463e-23)
(8.87333 0.660167 -7.96113e-23)
(8.94748 0.798602 -6.68897e-23)
(8.95009 0.544345 -2.39183e-23)
(8.91217 -0.345573 -3.46946e-24)
(8.86714 -0.288476 1.55779e-23)
(9.04149 -0.410686 -6.46205e-23)
(9.00096 -0.360734 -5.19664e-23)
(9.20363 -0.487336 2.74101e-22)
(9.14053 -0.385761 2.75242e-22)
(9.41998 -0.584167 -5.17631e-23)
(9.33712 -0.480378 -4.31805e-22)
(9.67548 -0.743581 9.44815e-22)
(9.58974 -0.545325 -2.25682e-22)
(9.72201 -0.667719 -7.35038e-22)
(9.82756 -0.830252 1.17874e-22)
(9.78032 -0.736172 -8.90146e-23)
(9.69494 -0.833939 3.49053e-22)
(10.0533 -1.04004 0)
(10.0134 -0.92625 -2.31307e-22)
(10.1619 -0.897911 -1.22153e-21)
(10.2444 -1.01049 8.59306e-22)
(10.2002 -1.06451 2.31821e-23)
(10.4359 -1.30363 1.28578e-21)
(10.4201 -1.22391 7.3976e-22)
(10.5386 -1.31301 -5.739e-22)
(10.5234 -1.21898 5.82864e-22)
(10.7637 -1.66995 -1.45722e-20)
(10.801 -1.68005 -2.35391e-20)
(10.8323 -1.65541 -7.50849e-20)
(10.4013 -2.09464 -1.79542e-22)
(10.3175 -2.0024 -4.06896e-21)
(10.1907 -2.09689 -1.4244e-21)
(10.3203 -2.22467 4.30524e-21)
(7.04772 -0.18262 3.00469e-22)
(7.14646 -0.673197 2.39421e-21)
(6.55233 -0.295305 4.13122e-21)
(6.6653 -0.796619 6.13899e-22)
(2.6177 1.19602 -1.86248e-21)
(2.39513 1.44673 -2.4077e-21)
(2.27511 1.14489 -1.40695e-21)
(2.44808 0.902335 5.40981e-21)
(4.78179 0.862056 4.12266e-21)
(4.52422 0.957135 4.26732e-21)
(5.08316 0.922738 5.98214e-21)
(4.81765 1.01466 -4.34122e-21)
(-6.10101 0.101137 2.08767e-20)
(-7.49981 0.721283 4.14143e-20)
(-7.17436 0.796888 4.37779e-19)
(-4.91459 0.139169 -4.36145e-19)
(7.79167 4.97189 -6.67131e-22)
(6.1667 4.5074 2.89676e-21)
(8.17531 4.85711 4.52117e-22)
(7.4778 4.76001 -5.63126e-21)
(9.32504 3.45734 -8.01963e-23)
(9.41728 3.4034 -1.02669e-22)
(9.53733 3.45053 -1.7497e-25)
(9.27505 2.42001 -2.09952e-22)
(9.15922 2.34014 1.35274e-22)
(9.22505 2.24245 6.73469e-23)
(9.33335 2.30131 5.09058e-23)
(9.17706 1.84941 1.49078e-22)
(9.0576 1.74686 9.23373e-23)
(9.13641 1.66197 5.45627e-23)
(9.24185 1.7319 -9.25577e-25)
(9.11236 1.24807 -3.27098e-23)
(9.26289 1.33646 -1.09222e-21)
(9.12551 1.50835 -1.61314e-23)
(9.22616 1.49935 -3.40784e-22)
(9.07522 1.03627 -2.87234e-23)
(9.19848 1.1478 7.49972e-23)
(9.0418 0.857471 -3.41878e-23)
(9.15002 0.918476 2.20933e-22)
(9.02002 0.700191 -3.09561e-24)
(9.10286 0.827 -9.05467e-25)
(9.08237 0.583615 2.35909e-24)
(8.95502 -0.297167 4.37279e-23)
(8.88856 -0.256855 -4.74663e-23)
(9.0985 -0.338149 3.19068e-22)
(9.04127 -0.290127 1.69419e-22)
(9.27283 -0.383476 -7.87688e-22)
(9.18488 -0.298134 5.72296e-22)
(9.5057 -0.441972 -7.42591e-22)
(9.39403 -0.356028 -1.97331e-22)
(9.78647 -0.547096 5.85186e-22)
(9.65465 -0.386511 0)
(9.80774 -0.471954 -2.81451e-21)
(9.83191 -0.631385 3.78728e-22)
(9.95589 -0.597973 4.38363e-22)
(9.88128 -0.52802 -1.66704e-21)
(10.2405 -0.743213 -2.47868e-21)
(10.1611 -0.644046 -1.25585e-21)
(10.2814 -0.587557 8.44373e-22)
(10.4064 -0.652053 -8.34718e-22)
(10.3926 -0.723958 -6.41286e-21)
(10.745 -0.879012 -4.78722e-21)
(10.686 -0.796349 2.9956e-21)
(10.8697 -0.835857 -2.81748e-22)
(10.7812 -0.740128 -2.68168e-23)
(11.594 -1.28492 9.56633e-20)
(11.618 -1.18266 -5.21155e-21)
(11.7402 -1.15812 3.6464e-22)
(13.3999 -3.69957 4.37273e-20)
(13.0676 -4.12584 5.4461e-20)
(13.5842 -4.81552 -3.62105e-20)
(14.1424 -4.07686 -3.63856e-20)
(3.42873 -5.27347 9.97917e-20)
(3.50019 -5.21178 -2.61893e-20)
(3.09941 -4.8149 2.84864e-19)
(3.06241 -4.49418 -5.95184e-20)
(0.256801 -1.92077 -2.70816e-21)
(0.55524 -1.4812 3.2017e-22)
(0.341256 -1.35026 -2.32483e-20)
(-0.0223814 -1.62172 -3.22333e-21)
(0.331402 0.827175 6.69982e-25)
(0.221654 0.794263 1.41095e-20)
(0.199908 0.895487 6.50936e-21)
(0.154135 0.964335 -6.85307e-21)
(3.59415 1.1808 -9.66002e-21)
(3.30434 1.17429 -4.16849e-20)
(3.81517 1.31217 8.96025e-21)
(3.44902 1.26356 -1.05048e-20)
(-12.2796 2.22707 3.07314e-19)
(-9.98459 2.47135 1.03163e-18)
(-12.656 2.47555 -9.77086e-20)
(-11.8415 2.51705 5.20521e-19)
(6.60166 1.17685 -3.47738e-22)
(4.93959 0.91756 -6.01985e-20)
(7.50166 1.02134 -1.12543e-20)
(6.57296 0.687305 4.37863e-20)
(10.6794 2.71755 0)
(10.4925 2.59324 -4.15319e-19)
(10.7479 2.55132 2.3822e-21)
(10.7064 2.48032 2.59139e-21)
(9.84744 1.97237 -1.33301e-21)
(9.72641 2.00733 8.9673e-22)
(9.70946 1.91116 -8.28799e-22)
(9.78486 1.87254 9.39766e-22)
(9.50628 1.71721 -7.48092e-22)
(9.39136 1.68915 -2.19952e-22)
(9.42993 1.59967 0)
(9.50671 1.64264 1.68339e-21)
(9.33833 1.24234 1.07751e-22)
(9.48865 1.31562 -9.12281e-23)
(9.39329 1.48161 2.1751e-23)
(9.46787 1.46177 -1.37621e-21)
(9.2663 1.04356 8.85877e-23)
(9.3947 1.13372 2.34758e-23)
(9.20621 0.874487 1.81076e-23)
(9.31705 0.918357 -1.66586e-22)
(9.16162 0.72543 4.54805e-24)
(9.25018 0.834889 -1.02374e-22)
(9.20537 0.611972 -1.03311e-23)
(8.97483 -0.239845 7.83295e-23)
(8.88943 -0.215205 7.14571e-23)
(9.12766 -0.256618 4.22806e-22)
(9.05755 -0.210711 -2.85236e-22)
(9.30772 -0.272304 6.27939e-22)
(9.19975 -0.205058 8.30468e-22)
(9.54696 -0.299447 3.30904e-22)
(9.41963 -0.226647 -1.23709e-21)
(9.83151 -0.361898 0)
(9.68084 -0.227813 1.84072e-21)
(9.83432 -0.294533 1.45216e-21)